LAMMPS data file. msi2lmp v3.9.9 / 05 Nov 2018 / CGCMM for hardener

   5376 atoms
   5120 bonds
   9216 angles
  12288 dihedrals
   5632 impropers

   4 atom types
   4 bond types
   7 angle types
   7 dihedral types
   5 improper types

     0.334861015    40.070561015 xlo xhi
     0.664075481    40.399775481 ylo yhi
     0.299344894    40.035044894 zlo zhi

Masses

   1  12.011150 # c2
   2  14.006700 # na
   3   1.007970 # hc
   4   1.007970 # hn

Pair Coeffs # lj/class2/coul/long

   1   0.0540000000   4.0100000000 # c2
   2   0.0650000000   4.0700000000 # na
   3   0.0200000000   2.9950000000 # hc
   4   0.0130000000   1.0980000000 # hn

Bond Coeffs # class2

   1     1.5300   299.6700  -501.7700   679.8100 # c2-c2
   2     1.4570   365.8052  -699.6368   998.4842 # c2-na
   3     1.1010   345.0000  -691.8900   844.6000 # c2-hc
   4     1.0060   466.7400 -1073.6018  1251.1056 # na-hn

Angle Coeffs # class2

   1   111.9100    60.7147   -13.3366   -13.0785 # c2-c2-na
   2   110.7700    41.4530   -10.6040     5.1290 # c2-c2-hc
   3   110.6204    51.3137    -6.7198    -2.6003 # na-c2-hc
   4   107.6600    39.6410   -12.9210    -2.4318 # hc-c2-hc
   5   112.6700    39.5160    -7.4430    -9.5583 # c2-c2-c2
   6   110.9538    50.8652    -4.4522   -10.0298 # c2-na-hn
   7   107.0671    45.2520    -7.5558    -9.5120 # hn-na-hn

Dihedral Coeffs # class2

   1     0.1764     0.0000     0.1766     0.0000    -0.5206     0.0000# c2-c2-c2-na
   2    -0.2428     0.0000     0.4065     0.0000    -0.3079     0.0000# na-c2-c2-hc
   3     0.0000     0.0000     0.0316     0.0000    -0.1681     0.0000# c2-c2-c2-hc
   4    -0.1432     0.0000     0.0617     0.0000    -0.1083     0.0000# hc-c2-c2-hc
   5    -1.1506     0.0000    -0.6344     0.0000    -0.1845     0.0000# c2-c2-na-hn
   6    -0.5187     0.0000    -0.4837     0.0000    -0.1692     0.0000# hc-c2-na-hn
   7     0.0000     0.0000     0.0514     0.0000    -0.1430     0.0000# c2-c2-c2-c2

Improper Coeffs # class2

  1     0.0000     0.0000 # c2-na-hn-hn
  2     0.0000     0.0000 
  3     0.0000     0.0000 
  4     0.0000     0.0000 
  5     0.0000     0.0000 

BondBond Coeffs

  1     4.6217     1.5300     1.4570 
  2     3.3872     1.5300     1.1010 
  3    12.4260     1.4570     1.1010 
  4     5.3316     1.1010     1.1010 
  5     0.0000     1.5300     1.5300 
  6    -6.4168     1.4570     1.0060 
  7    -1.8749     1.0060     1.0060 

BondAngle Coeffs

  1     6.0876    16.5702     1.5300     1.4570 
  2    20.7540    11.4210     1.5300     1.1010 
  3    42.4332    13.4582     1.4570     1.1010 
  4    18.1030    18.1030     1.1010     1.1010 
  5     8.0160     8.0160     1.5300     1.5300 
  6    31.8096    20.5799     1.4570     1.0060 
  7    28.0322    28.0322     1.0060     1.0060 

AngleAngle Coeffs

  1    -6.1569     0.0000    -6.1569   110.9538   107.0671   110.9538 
  2    -2.5301     0.5381     2.4286   111.9100   110.6204   110.7700 
  3     0.2738    -0.4825     0.2738   110.7700   107.6600   110.7700 
  4     2.4321    -3.5496     2.4321   110.6204   107.6600   110.6204 
  5    -1.3199    -1.3199     0.1184   112.6700   110.7700   110.7700 

AngleAngleTorsion Coeffs

  1   -27.3953   112.6700   111.9100 
  2   -15.7572   111.9100   110.7700 
  3   -16.1640   112.6700   110.7700 
  4   -12.5640   110.7700   110.7700 
  5    -7.5499   111.9100   110.9538 
  6   -10.4258   110.6204   110.9538 
  7   -22.0450   112.6700   112.6700 

EndBondTorsion Coeffs

1     0.1032     0.5896    -0.4836     0.0579    -0.0043    -0.1906     1.5300     1.4570 
2     0.1022     0.2090     0.6433     0.1960     0.7056     0.1120     1.4570     1.1010 
3     0.2486     0.2422    -0.0925     0.0814     0.0591     0.2219     1.5300     1.1010 
4     0.2130     0.3120     0.0777     0.2130     0.3120     0.0777     1.1010     1.1010 
5    -0.9466     0.9356    -0.5542     0.0570     0.0625     0.4112     1.5300     1.0060 
6    -1.1685     0.9266    -0.0993     0.0850     0.3061     0.2104     1.1010     1.0060 
7    -0.0732     0.0000     0.0000    -0.0732     0.0000     0.0000     1.5300     1.5300 

MiddleBondTorsion Coeffs

  1   -15.4174    -7.3055    -1.0749     1.5300 
  2   -10.4959    -0.7647    -0.0545     1.5300 
  3   -14.8790    -3.6581    -0.3138     1.5300 
  4   -14.2610    -0.5322    -0.4864     1.5300 
  5    -2.2208     0.5479    -0.3527     1.4570 
  6    -3.4611     1.6996    -0.6007     1.4570 
  7   -17.7870    -7.1877     0.0000     1.5300 

BondBond13 Coeffs

  1     0.0000     1.5300     1.4570 
  2     0.0000     1.4570     1.1010 
  3     0.0000     1.5300     1.1010 
  4     0.0000     1.1010     1.1010 
  5     0.0000     1.5300     1.0060 
  6     0.0000     1.1010     1.0060 
  7     0.0000     1.5300     1.5300 

AngleTorsion Coeffs

  1    -1.9225    -1.3450     0.2210     2.0125     0.9440    -2.7612   112.6700   111.9100 
  2    -1.1075     0.2820     0.8318     0.5111     1.6328    -1.0155   111.9100   110.7700 
  3    -0.2454     0.0000    -0.1136     0.3113     0.4516    -0.1988   112.6700   110.7700 
  4    -0.8085     0.5569    -0.2466    -0.8085     0.5569    -0.2466   110.7700   110.7700 
  5    -3.3430     4.4558    -0.0346     0.2873    -0.8072    -0.0960   111.9100   110.9538 
  6    -3.9582     2.0063     0.3213    -0.4294    -0.4442    -0.6141   110.6204   110.9538 
  7     0.3886    -0.3139     0.1389     0.3886    -0.3139     0.1389   112.6700   112.6700 

Atoms # full

      1      1   1 -0.023300    23.821926592    21.684861085     7.071219401   0   0   1 # c2
      2      1   1 -0.106000    22.866087316    20.539970961     7.304162956   0   0   1 # c2
      3      1   1 -0.106000    23.474813569    19.300752485     6.490887063   0   0   1 # c2
      4      1   1 -0.106000    24.643325514    18.648552623     7.225482317   0   0   1 # c2
      5      1   1 -0.023300    24.911087013    17.289538579     6.623580163   0   0   1 # c2
      6      1   2 -0.580100    26.098474954    16.612700865     7.206103494   0   0   1 # na
      7      1   2 -0.580100    23.502167432    22.932816379     7.795500646   0   0   1 # na
      8      1   3  0.053000    23.751040635    21.983404882     5.975684052   0   0   1 # hc
      9      1   3  0.053000    24.839551968    21.394518101     7.431225529   0   0   1 # hc
     10      1   3  0.053000    21.863830598    20.699192257     6.895108646   0   0   1 # hc
     11      1   3  0.053000    22.866772828    20.268193571     8.412767449   0   0   1 # hc
     12      1   3  0.053000    23.806295908    19.595310930     5.498694668   0   0   1 # hc
     13      1   3  0.053000    22.682273972    18.528786441     6.287937145   0   0   1 # hc
     14      1   3  0.053000    24.311614456    18.444885358     8.262284562   0   0   1 # hc
     15      1   3  0.053000    25.523845801    19.289458477     7.260657871   0   0   1 # hc
     16      1   3  0.053000    24.984461671    17.379510798     5.488001246   0   0   1 # hc
     17      1   3  0.053000    24.026742191    16.556884424     6.776385317   0   0   1 # hc
     18      1   4  0.248700    26.896682483    17.295564149     7.256357569   0   0   1 # hn
     19      1   4  0.248700    26.347656523    15.801199965     6.626778799   0   0   1 # hn
     20      1   4  0.248700    23.519250201    23.702679087     7.139207583   0   0   1 # hn
     21      1   4  0.248700    24.208517035    23.162482299     8.481062680   0   0   1 # hn
     22      2   1 -0.023300    24.233702945    34.415738190    11.187158313   0   0   0 # c2
     23      2   1 -0.106000    24.236317729    35.507811996    10.131413908   0   0   0 # c2
     24      2   1 -0.106000    25.112438713    36.623280902    10.584806599   0   0   0 # c2
     25      2   1 -0.106000    25.076351228    37.843186376     9.702351838   0   0   0 # c2
     26      2   1 -0.023300    26.005251345    38.924987308    10.101665766   0   0   0 # c2
     27      2   2 -0.580100    25.504547937    39.765811160    11.267468669   0   0   0 # na
     28      2   2 -0.580100    25.344877842    33.532461128    11.148416990   0   0   0 # na
     29      2   3  0.053000    23.377118372    33.707886541    10.976961012   0   0   0 # hc
     30      2   3  0.053000    23.941045398    34.765049721    12.236503741   0   0   0 # hc
     31      2   3  0.053000    23.161548385    35.811260019     9.917583248   0   0   0 # hc
     32      2   3  0.053000    24.758303206    35.136059101     9.245823993   0   0   0 # hc
     33      2   3  0.053000    26.124804072    36.412006851    10.763345994   0   0   0 # hc
     34      2   3  0.053000    24.741273488    36.845307316    11.586725095   0   0   0 # hc
     35      2   3  0.053000    24.019480232    38.169505403     9.609013196   0   0   0 # hc
     36      2   3  0.053000    25.404754679    37.550346167     8.659199505   0   0   0 # hc
     37      2   3  0.053000    26.157338679    39.543843539     9.195631684   0   0   0 # hc
     38      2   3  0.053000    27.019686745    38.495688365    10.276508065   0   0   0 # hc
     39      2   4  0.248700    25.835545323    39.341243174    12.121900632   0   0   0 # hn
     40      2   4  0.248700    25.919881869     0.890191723    11.336793451   0   1   0 # hn
     41      2   4  0.248700    25.241022362    32.898459504    10.296748420   0   0   0 # hn
     42      2   4  0.248700    26.236174517    33.892632824    11.147118309   0   0   0 # hn
     43      3   1 -0.023300    18.684838533    24.440474928    34.837807364   0   0   0 # c2
     44      3   1 -0.106000    17.267200099    24.283758473    34.337190599   0   0   0 # c2
     45      3   1 -0.106000    16.227895460    24.169041678    35.354214140   0   0   0 # c2
     46      3   1 -0.106000    14.846854871    24.397693239    34.775917353   0   0   0 # c2
     47      3   1 -0.023300    13.727017481    24.147007760    35.763916242   0   0   0 # c2
     48      3   2 -0.580100    12.482187819    24.252650766    35.047963540   0   0   0 # na
     49      3   2 -0.580100    19.320872399    23.333234773    35.552193234   0   0   0 # na
     50      3   3  0.053000    18.695970050    25.332334014    35.583095707   0   0   0 # hc
     51      3   3  0.053000    19.270557918    24.790962371    33.964632213   0   0   0 # hc
     52      3   3  0.053000    17.202167142    23.336792278    33.701410371   0   0   0 # hc
     53      3   3  0.053000    17.059677656    25.196236727    33.816576350   0   0   0 # hc
     54      3   3  0.053000    16.331680482    24.941128918    36.102390027   0   0   0 # hc
     55      3   3  0.053000    16.193815012    23.179411274    35.910637618   0   0   0 # hc
     56      3   3  0.053000    14.644889487    23.732415314    33.895905805   0   0   0 # hc
     57      3   3  0.053000    14.649792640    25.385665447    34.504671356   0   0   0 # hc
     58      3   3  0.053000    13.758757712    24.875265208    36.603687024   0   0   0 # hc
     59      3   3  0.053000    13.934715118    23.142895782    36.170615341   0   0   0 # hc
     60      3   4  0.248700    11.716617235    24.014939149    35.671960049   0   0   0 # hn
     61      3   4  0.248700    12.470157448    23.669747491    34.233943254   0   0   0 # hn
     62      3   4  0.248700    19.354974580    22.427995877    35.021472142   0   0   0 # hn
     63      3   4  0.248700    18.886152554    23.166218272    36.448186377   0   0   0 # hn
     64      4   1 -0.023300    10.475377829    25.707350391     4.396517687   0   0   0 # c2
     65      4   1 -0.106000    11.670594738    24.862485897     5.026185520   0   0   0 # c2
     66      4   1 -0.106000    11.257082370    24.211379294     6.350147485   0   0   0 # c2
     67      4   1 -0.106000    12.459243929    23.847374800     7.242846164   0   0   0 # c2
     68      4   1 -0.023300    12.272514420    22.944378668     8.456422359   0   0   0 # c2
     69      4   2 -0.580100    13.595024593    22.629065416     9.055875047   0   0   0 # na
     70      4   2 -0.580100    10.825290280    26.232358534     3.114256343   0   0   0 # na
     71      4   3  0.053000    10.284629996    26.674009421     4.854824857   0   0   0 # hc
     72      4   3  0.053000     9.588727037    25.095405327     4.337329799   0   0   0 # hc
     73      4   3  0.053000    12.516011880    25.530695537     5.206699731   0   0   0 # hc
     74      4   3  0.053000    11.881183303    24.030349732     4.441219431   0   0   0 # hc
     75      4   3  0.053000    10.731185673    23.257876786     6.093182651   0   0   0 # hc
     76      4   3  0.053000    10.585942105    24.927193524     6.973420084   0   0   0 # hc
     77      4   3  0.053000    12.932728893    24.809407054     7.573492195   0   0   0 # hc
     78      4   3  0.053000    13.247722230    23.482278218     6.574768483   0   0   0 # hc
     79      4   3  0.053000    11.677673479    22.008496725     8.054026768   0   0   0 # hc
     80      4   3  0.053000    11.590661341    23.405388570     9.209907738   0   0   0 # hc
     81      4   4  0.248700    13.541166049    22.061466882     9.858666549   0   0   0 # hn
     82      4   4  0.248700    13.903713543    23.496673443     9.414682004   0   0   0 # hn
     83      4   4  0.248700    10.891018869    25.640765780     2.331505136   0   0   0 # hn
     84      4   4  0.248700    11.720408972    26.581971668     3.115836776   0   0   0 # hn
     85      5   1 -0.023300    16.445189283    19.125499510    24.985079483   0   0   0 # c2
     86      5   1 -0.106000    16.977980846    20.459332107    25.492455276   0   0   0 # c2
     87      5   1 -0.106000    18.482824594    20.483956577    25.922048919   0   0   0 # c2
     88      5   1 -0.106000    19.525504326    19.936970438    24.877003827   0   0   0 # c2
     89      5   1 -0.023300    21.022047892    20.246820183    25.279730272   0   0   0 # c2
     90      5   2 -0.580100    21.969128186    19.754690985    24.255878184   0   0   0 # na
     91      5   2 -0.580100    15.002922001    19.093962455    25.049121891   0   0   0 # na
     92      5   3  0.053000    16.856193874    18.338706312    25.652260932   0   0   0 # hc
     93      5   3  0.053000    16.768246275    18.927093382    23.964337549   0   0   0 # hc
     94      5   3  0.053000    16.389391999    20.916454379    26.319945774   0   0   0 # hc
     95      5   3  0.053000    16.921846934    21.138570580    24.603044625   0   0   0 # hc
     96      5   3  0.053000    18.684764638    19.815863956    26.829714722   0   0   0 # hc
     97      5   3  0.053000    18.795108222    21.543245824    26.198751318   0   0   0 # hc
     98      5   3  0.053000    19.387191897    20.370047444    23.878399644   0   0   0 # hc
     99      5   3  0.053000    19.362053176    18.809561422    24.740643803   0   0   0 # hc
    100      5   3  0.053000    21.248793462    19.937009737    26.329587670   0   0   0 # hc
    101      5   3  0.053000    21.126104958    21.348802299    25.247205275   0   0   0 # hc
    102      5   4  0.248700    21.642490867    18.928281765    23.703312520   0   0   0 # hn
    103      5   4  0.248700    22.915740032    19.572457431    24.584321247   0   0   0 # hn
    104      5   4  0.248700    14.533491712    19.589244491    24.326299978   0   0   0 # hn
    105      5   4  0.248700    14.581623946    18.241074775    25.298525332   0   0   0 # hn
    106      6   1 -0.023300    39.199958802    25.365485553    34.237460204  -1   0   0 # c2
    107      6   1 -0.106000    39.475900532    23.901902901    34.518117376  -1   0   0 # c2
    108      6   1 -0.106000    38.336046384    23.129465647    35.289825934  -1   0   0 # c2
    109      6   1 -0.106000    38.647017616    21.661890142    35.102605017  -1   0   0 # c2
    110      6   1 -0.023300    38.069111485    21.099010980    33.783704067  -1   0   0 # c2
    111      6   2 -0.580100    38.685998688    19.884235100    33.434959271  -1   0   0 # na
    112      6   2 -0.580100    38.113165874    25.703629282    33.262582708  -1   0   0 # na
    113      6   3  0.053000     0.337658015    25.812489883    33.697115831   0   0   0 # hc
    114      6   3  0.053000    39.212676598    25.990552275    35.164464466  -1   0   0 # hc
    115      6   3  0.053000     0.587793792    23.887558886    35.138849037   0   0   0 # hc
    116      6   3  0.053000    39.660540574    23.401220651    33.585811528  -1   0   0 # hc
    117      6   3  0.053000    37.315362243    23.318315678    34.906550467  -1   0   0 # hc
    118      6   3  0.053000    38.286286916    23.400784157    36.429472891  -1   0   0 # hc
    119      6   3  0.053000    38.164373160    21.075273028    35.858386395  -1   0   0 # hc
    120      6   3  0.053000    39.757140245    21.472973668    35.160389409  -1   0   0 # hc
    121      6   3  0.053000    38.147463204    21.879348441    32.927031980  -1   0   0 # hc
    122      6   3  0.053000    36.959400572    20.988193512    33.816271020  -1   0   0 # hc
    123      6   4  0.248700    38.445683721    19.799730857    32.435987036  -1   0   0 # hn
    124      6   4  0.248700    38.401895917    19.074251178    33.935560097  -1   0   0 # hn
    125      6   4  0.248700    38.396026504    26.607677068    32.907705093  -1   0   0 # hn
    126      6   4  0.248700    37.286180264    25.865730895    33.878752651  -1   0   0 # hn
    127      7   1 -0.023300     8.768997674     0.902819307    19.858764072   0   0   0 # c2
    128      7   1 -0.106000     8.118784212    39.487865079    19.024031238   0  -1   0 # c2
    129      7   1 -0.106000     6.687525523    39.787924084    18.522537002   0  -1   0 # c2
    130      7   1 -0.106000     6.576065052     1.026859605    17.342764196   0   0   0 # c2
    131      7   1 -0.023300     5.123767424     1.329598080    16.903968067   0   0   0 # c2
    132      7   2 -0.580100     4.313309470     1.774830104    18.013114189   0   0   0 # na
    133      7   2 -0.580100     9.862222753    40.266692839    20.692832656   0  -1   0 # na
    134      7   3  0.053000     8.019986347     1.252163272    20.592112876   0   0   0 # hc
    135      7   3  0.053000     9.070355154     1.772664645    19.168162638   0   0   0 # hc
    136      7   3  0.053000     8.144110563    38.601643440    19.649910887   0  -1   0 # hc
    137      7   3  0.053000     8.833577511    39.424628697    18.161536103   0  -1   0 # hc
    138      7   3  0.053000     6.015693946    40.167217874    19.336662325   0  -1   0 # hc
    139      7   3  0.053000     6.236437565    38.870593440    18.253362147   0  -1   0 # hc
    140      7   3  0.053000     7.035811100    40.259239774    16.457833498   0  -1   0 # hc
    141      7   3  0.053000     6.975140477     2.023140069    17.594714034   0   0   0 # hc
    142      7   3  0.053000     4.785119221    40.075961352    16.553704444   0  -1   0 # hc
    143      7   3  0.053000     5.093943233     2.068782773    15.996422659   0   0   0 # hc
    144      7   4  0.248700     4.620488899     2.668767024    18.261397491   0   0   0 # hn
    145      7   4  0.248700     3.299526419     1.797310522    17.758994348   0   0   0 # hn
    146      7   4  0.248700    10.671025795    40.002711478    20.180119152   0  -1   0 # hn
    147      7   4  0.248700     9.676673329    39.456824271    21.319622665   0  -1   0 # hn
    148      8   1 -0.023300     4.862746622    25.524430440    38.597289782   0   0  -1 # c2
    149      8   1 -0.106000     4.480450981    25.770907201    37.138017024   0   0  -1 # c2
    150      8   1 -0.106000     5.131707809    27.021455574    36.498852184   0   0  -1 # c2
    151      8   1 -0.106000     6.646265143    27.035301535    36.431781997   0   0  -1 # c2
    152      8   1 -0.023300     7.224163564    28.233503335    35.673057519   0   0  -1 # c2
    153      8   2 -0.580100     8.689022030    28.113429737    35.846153871   0   0  -1 # na
    154      8   2 -0.580100     4.709249425    26.755738926    39.358874671   0   0  -1 # na
    155      8   3  0.053000     5.899965132    25.112599027    38.498471544   0   0  -1 # hc
    156      8   3  0.053000     4.284333836    24.701622351    38.989519179   0   0  -1 # hc
    157      8   3  0.053000     3.392939272    25.852521459    37.148658719   0   0  -1 # hc
    158      8   3  0.053000     4.634216875    24.929639973    36.410145954   0   0  -1 # hc
    159      8   3  0.053000     4.731593791    27.896507007    37.065970107   0   0  -1 # hc
    160      8   3  0.053000     4.666779281    27.113295921    35.529565069   0   0  -1 # hc
    161      8   3  0.053000     6.966291154    26.037096203    35.929558745   0   0  -1 # hc
    162      8   3  0.053000     7.053314672    26.964430724    37.407017048   0   0  -1 # hc
    163      8   3  0.053000     6.603195389    29.183685273    35.910389652   0   0  -1 # hc
    164      8   3  0.053000     6.972453062    28.239677695    34.544158179   0   0  -1 # hc
    165      8   4  0.248700     9.228813123    28.862061491    35.411135493   0   0  -1 # hn
    166      8   4  0.248700     8.888849148    28.109178307    36.843276103   0   0  -1 # hn
    167      8   4  0.248700     3.798288640    26.783389055    39.758152063   0   0  -1 # hn
    168      8   4  0.248700     5.333451504    26.680095649     0.377972101   0   0   0 # hn
    169      9   1 -0.023300    32.338875955    25.781856681    24.665001237  -1   0   0 # c2
    170      9   1 -0.106000    33.805246758    26.064864115    24.310426717  -1   0   0 # c2
    171      9   1 -0.106000    34.512230256    26.809973193    25.483005149  -1   0   0 # c2
    172      9   1 -0.106000    35.760834584    27.519364935    24.980461952  -1   0   0 # c2
    173      9   1 -0.023300    36.517139547    28.248364756    26.063798233  -1   0   0 # c2
    174      9   2 -0.580100    37.689216336    28.784901125    25.471108075  -1   0   0 # na
    175      9   2 -0.580100    31.534909584    25.299950104    23.549681310  -1   0   0 # na
    176      9   3  0.053000    31.857014730    26.669516744    25.061878179  -1   0   0 # hc
    177      9   3  0.053000    32.221955449    25.057232659    25.466708687  -1   0   0 # hc
    178      9   3  0.053000    33.810290928    26.674650386    23.376462928  -1   0   0 # hc
    179      9   3  0.053000    34.243658953    24.981832930    24.088907558  -1   0   0 # hc
    180      9   3  0.053000    34.835168093    26.120548119    26.245552799  -1   0   0 # hc
    181      9   3  0.053000    33.838469799    27.552853849    26.012876606  -1   0   0 # hc
    182      9   3  0.053000    35.599095812    28.299306208    24.188983890  -1   0   0 # hc
    183      9   3  0.053000    36.479626502    26.740359886    24.586638236  -1   0   0 # hc
    184      9   3  0.053000    36.776673988    27.624144975    26.915405289  -1   0   0 # hc
    185      9   3  0.053000    35.856043352    29.097173874    26.482015794  -1   0   0 # hc
    186      9   4  0.248700    38.178848129    29.175186024    26.250410988  -1   0   0 # hn
    187      9   4  0.248700    38.300107726    28.036546150    25.230430115  -1   0   0 # hn
    188      9   4  0.248700    30.639226744    24.840364138    23.750047789  -1   0   0 # hn
    189      9   4  0.248700    31.349344941    26.167754639    22.969904785  -1   0   0 # hn
    190     10   1 -0.023300    37.756870043    30.898358541    34.588943709   0   0   0 # c2
    191     10   1 -0.106000    36.338863027    31.297296771    35.138230168   0   0   0 # c2
    192     10   1 -0.106000    35.631370991    32.172410092    34.118848465   0   0   0 # c2
    193     10   1 -0.106000    34.251136497    32.550181475    34.622833007   0   0   0 # c2
    194     10   1 -0.023300    33.301488906    31.282351503    34.574582047   0   0   0 # c2
    195     10   2 -0.580100    32.002925657    31.508161552    35.135734400   0   0   0 # na
    196     10   2 -0.580100    38.589024468    30.451696657    35.682461911   0   0   0 # na
    197     10   3  0.053000    38.151948798    31.668025256    33.908321195   0   0   0 # hc
    198     10   3  0.053000    37.472471188    30.054589238    33.970426513   0   0   0 # hc
    199     10   3  0.053000    36.521731362    31.944073300    35.964756285   0   0   0 # hc
    200     10   3  0.053000    35.798492059    30.354287009    35.400342228   0   0   0 # hc
    201     10   3  0.053000    35.528888703    31.608591232    33.146402011   0   0   0 # hc
    202     10   3  0.053000    36.251391650    33.130510157    33.911462517   0   0   0 # hc
    203     10   3  0.053000    33.859849117    33.296184254    33.886254708   0   0   0 # hc
    204     10   3  0.053000    34.371376134    32.988444319    35.589414022   0   0   0 # hc
    205     10   3  0.053000    33.609711820    30.381916228    35.106698394   0   0   0 # hc
    206     10   3  0.053000    33.214487305    31.007482363    33.493437867   0   0   0 # hc
    207     10   4  0.248700    31.538154069    32.203722430    34.631921431   0   0   0 # hn
    208     10   4  0.248700    32.043078560    31.828130707    36.111412590   0   0   0 # hn
    209     10   4  0.248700    38.255040693    30.499962418    36.613432112   0   0   0 # hn
    210     10   4  0.248700    39.527035443    30.873264999    35.622500234   0   0   0 # hn
    211     11   1 -0.023300    15.929416774    30.500895455    30.572294900   0   0   0 # c2
    212     11   1 -0.106000    16.683995955    30.426024186    29.225787072   0   0   0 # c2
    213     11   1 -0.106000    18.099937117    31.163045534    29.129802484   0   0   0 # c2
    214     11   1 -0.106000    18.110334404    32.679772246    29.460040582   0   0   0 # c2
    215     11   1 -0.023300    17.260081220    33.555947613    28.520418719   0   0   0 # c2
    216     11   2 -0.580100    17.324848903    34.990064143    28.829303207   0   0   0 # na
    217     11   2 -0.580100    14.587303759    29.934489800    30.259642347   0   0   0 # na
    218     11   3  0.053000    15.844544088    31.504109780    30.942410283   0   0   0 # hc
    219     11   3  0.053000    16.320411794    29.747441166    31.310844186   0   0   0 # hc
    220     11   3  0.053000    15.994899411    30.847219616    28.437912224   0   0   0 # hc
    221     11   3  0.053000    16.901376575    29.338986587    29.017370340   0   0   0 # hc
    222     11   3  0.053000    18.465009836    30.974519930    28.088941873   0   0   0 # hc
    223     11   3  0.053000    18.735174390    30.716816429    29.883942059   0   0   0 # hc
    224     11   3  0.053000    19.143248805    33.047869513    29.276792068   0   0   0 # hc
    225     11   3  0.053000    17.906712654    32.789993777    30.578478102   0   0   0 # hc
    226     11   3  0.053000    16.222008858    33.167599084    28.580683113   0   0   0 # hc
    227     11   3  0.053000    17.700238825    33.315820281    27.510273941   0   0   0 # hc
    228     11   4  0.248700    17.205470800    35.094423822    29.858060901   0   0   0 # hn
    229     11   4  0.248700    16.564355158    35.525914386    28.340009747   0   0   0 # hn
    230     11   4  0.248700    14.167995864    30.380368742    29.409221290   0   0   0 # hn
    231     11   4  0.248700    13.945159309    30.065819728    31.064152375   0   0   0 # hn
    232     12   1 -0.023300    11.706654906    27.740669538    33.769536909   0   0   0 # c2
    233     12   1 -0.106000    10.557336953    27.467574337    32.762096391   0   0   0 # c2
    234     12   1 -0.106000    10.726350484    25.990619096    32.221826035   0   0   0 # c2
    235     12   1 -0.106000     9.995755016    25.745262262    30.888636361   0   0   0 # c2
    236     12   1 -0.023300    10.539374153    24.533356257    30.137449083   0   0   0 # c2
    237     12   2 -0.580100    11.769159336    24.815327711    29.441265087   0   0   0 # na
    238     12   2 -0.580100    11.396540211    27.298873496    35.172510062   0   0   0 # na
    239     12   3  0.053000    12.061953232    28.771125407    33.757387810   0   0   0 # hc
    240     12   3  0.053000    12.706431688    27.215657646    33.491742010   0   0   0 # hc
    241     12   3  0.053000    10.691332490    28.069025041    31.897045425   0   0   0 # hc
    242     12   3  0.053000     9.570420093    27.662351982    33.265073437   0   0   0 # hc
    243     12   3  0.053000    10.287109151    25.314578663    32.967358303   0   0   0 # hc
    244     12   3  0.053000    11.817031536    25.718288399    32.129640013   0   0   0 # hc
    245     12   3  0.053000    10.022530038    26.597268958    30.247644841   0   0   0 # hc
    246     12   3  0.053000     8.911361749    25.591366830    31.077987247   0   0   0 # hc
    247     12   3  0.053000     9.808853739    24.148702000    29.413178373   0   0   0 # hc
    248     12   3  0.053000    10.705316638    23.523877600    30.693057771   0   0   0 # hc
    249     12   4  0.248700    12.642156883    24.726198949    29.978207964   0   0   0 # hn
    250     12   4  0.248700    11.777011390    25.679176774    28.877826302   0   0   0 # hn
    251     12   4  0.248700    11.459984283    26.265810799    35.189793280   0   0   0 # hn
    252     12   4  0.248700    10.513325892    27.611039875    35.443503519   0   0   0 # hn
    253     13   1 -0.023300    29.934286619    31.011028956    31.333636498   0   0   0 # c2
    254     13   1 -0.106000    29.065649465    30.043498923    32.159944778   0   0   0 # c2
    255     13   1 -0.106000    29.026451326    30.364472971    33.625320652   0   0   0 # c2
    256     13   1 -0.106000    27.891008244    29.719536128    34.444762228   0   0   0 # c2
    257     13   1 -0.023300    26.530328961    29.812566787    33.786614356   0   0   0 # c2
    258     13   2 -0.580100    26.161114165    31.173850138    33.518443034   0   0   0 # na
    259     13   2 -0.580100    29.718064782    30.828736458    29.893511166   0   0   0 # na
    260     13   3  0.053000    31.027560398    30.857198760    31.529487242   0   0   0 # hc
    261     13   3  0.053000    29.851652723    31.997235973    31.721552029   0   0   0 # hc