LAMMPS data file. msi2lmp v3.9.9 / 05 Nov 2018 / CGCMM for epoxy

  12544 atoms
  13312 bonds
  24064 angles
  33280 dihedrals
  12288 impropers

   8 atom types
  12 bond types
  22 angle types
  26 dihedral types
  16 improper types

     0.277050607    51.437750607 xlo xhi
     0.595041313    51.755741313 ylo yhi
    -0.527724070    50.632975930 zlo zhi

Masses

   1  12.011150 # cp
   2  12.011150 # c
   3  12.011150 # c3
   4  12.011150 # c2
   5  12.011150 # c3h
   6  15.999400 # oc
   7  15.999400 # o3e
   8   1.007970 # hc

Pair Coeffs # lj/class2/coul/long

   1   0.0640000000   4.0100000000 # cp
   2   0.0540000000   4.0100000000 # c
   3   0.0540000000   4.0100000000 # c3
   4   0.0540000000   4.0100000000 # c2
   5   0.0540000000   4.0100000000 # c3h
   6   0.2400000000   3.5350000000 # oc
   7   0.2400000000   3.5350000000 # o3e
   8   0.0200000000   2.9950000000 # hc

Bond Coeffs # class2

   1     1.4170   470.8361  -627.6179  1327.6345 # cp-cp
   2     1.3768   428.8798  -738.2351  1114.9655 # cp-oc
   3     1.0982   372.8251  -803.4526   894.3173 # cp-hc
   4     1.5010   321.9021  -521.8208   572.1628 # cp-c
   5     1.5300   299.6700  -501.7700   679.8100 # c-c3
   6     1.1010   345.0000  -691.8900   844.6000 # c3-hc
   7     1.5300   299.6700  -501.7700   679.8100 # c2-c3h
   8     1.4200   400.3954  -835.1951  1313.0142 # c2-oc
   9     1.1010   345.0000  -691.8900   844.6000 # c2-hc
  10     1.5300   299.6700  -501.7700   679.8100 # c3h-c3h
  11     1.4200   400.3954  -835.1951  1313.0142 # c3h-o3e
  12     1.1010   345.0000  -691.8900   844.6000 # c3h-hc

Angle Coeffs # class2

   1   118.9000    61.0226   -34.9931     0.0000 # cp-cp-cp
   2   123.4200    73.6781   -21.6787     0.0000 # cp-cp-oc
   3   117.9400    35.1558   -12.4682     0.0000 # cp-cp-hc
   4   120.0500    44.7148   -22.7352     0.0000 # cp-cp-c
   5   111.0000    44.3234    -9.4454     0.0000 # cp-c-cp
   6   108.4000    43.9594    -8.3924    -9.3379 # cp-c-c3
   7   112.6700    39.5160    -7.4430    -9.5583 # c3-c-c3
   8   110.7700    41.4530   -10.6040     5.1290 # c-c3-hc
   9   107.6600    39.6410   -12.9210    -2.4318 # hc-c3-hc
  10   111.2700    54.5381    -8.3642   -13.0838 # c3h-c2-oc
  11   110.7700    41.4530   -10.6040     5.1290 # c3h-c2-hc
  12   108.7280    58.5446   -10.8088   -12.4006 # oc-c2-hc
  13   107.6600    39.6410   -12.9210    -2.4318 # hc-c2-hc
  14   112.6700    39.5160    -7.4430    -9.5583 # c2-c3h-c3h
  15   111.2700    54.5381    -8.3642   -13.0838 # c2-c3h-o3e
  16   110.7700    41.4530   -10.6040     5.1290 # c2-c3h-hc
  17   111.2700    54.5381    -8.3642   -13.0838 # c3h-c3h-o3e
  18   110.7700    41.4530   -10.6040     5.1290 # c3h-c3h-hc
  19   108.7280    58.5446   -10.8088   -12.4006 # o3e-c3h-hc
  20   107.6600    39.6410   -12.9210    -2.4318 # hc-c3h-hc
  21   102.9695    38.9739    -6.2595    -8.1710 # cp-oc-c2
  22   104.5000    35.7454   -10.0067    -6.2729 # c3h-o3e-c3h

Dihedral Coeffs # class2

   1     8.3667     0.0000     1.1932     0.0000     0.0000     0.0000# cp-cp-cp-cp
   2     0.0000     0.0000     3.9661     0.0000     0.0000     0.0000# cp-cp-cp-hc
   3     0.0000     0.0000     4.8498     0.0000     0.0000     0.0000# cp-cp-cp-oc
   4     0.0000     0.0000     1.7234     0.0000     0.0000     0.0000# oc-cp-cp-hc
   5     0.0000     0.0000     1.5000     0.0000     0.0000     0.0000# cp-cp-oc-c2
   6     0.0000     0.0000     1.8769     0.0000     0.0000     0.0000# hc-cp-cp-hc
   7     0.0000     0.0000     4.4072     0.0000     0.0000     0.0000# cp-cp-cp-c
   8     0.0000     0.0000     1.5590     0.0000     0.0000     0.0000# c-cp-cp-hc
   9    -0.2802     0.0000    -0.0678     0.0000    -0.0122     0.0000# cp-cp-c-cp
  10    -0.2802     0.0000    -0.0678     0.0000    -0.0122     0.0000# cp-cp-c-c3
  11    -0.0228     0.0000     0.0280     0.0000    -0.1863     0.0000# cp-c-c3-hc
  12     0.0000     0.0000     0.0316     0.0000    -0.1681     0.0000# c3-c-c3-hc
  13     0.7137     0.0000     0.2660     0.0000    -0.2545     0.0000# oc-c2-c3h-c3h
  14    -0.1820     0.0000    -0.1084     0.0000    -0.7047     0.0000# oc-c2-c3h-o3e
  15    -0.1435     0.0000     0.2530     0.0000    -0.0905     0.0000# oc-c2-c3h-hc
  16     0.0000     0.0000     0.0316     0.0000    -0.1681     0.0000# hc-c2-c3h-c3h
  17    -0.1435     0.0000     0.2530     0.0000    -0.0905     0.0000# hc-c2-c3h-o3e
  18    -0.1432     0.0000     0.0617     0.0000    -0.1083     0.0000# hc-c2-c3h-hc
  19    -0.5203     0.0000    -0.3028     0.0000    -0.3450     0.0000# c3h-c2-oc-cp
  20     0.9513     0.0000     0.1155     0.0000     0.0720     0.0000# hc-c2-oc-cp
  21     0.7137     0.0000     0.2660     0.0000    -0.2545     0.0000# c2-c3h-c3h-o3e
  22     0.0000     0.0000     0.0316     0.0000    -0.1681     0.0000# c2-c3h-c3h-hc
  23    -0.1435     0.0000     0.2530     0.0000    -0.0905     0.0000# o3e-c3h-c3h-hc
  24    -0.1432     0.0000     0.0617     0.0000    -0.1083     0.0000# hc-c3h-c3h-hc
  25    -0.5203     0.0000    -0.3028     0.0000    -0.3450     0.0000# c2-c3h-o3e-c3h
  26     0.5302     0.0000     0.0000     0.0000    -0.3966     0.0000# hc-c3h-o3e-c3h

Improper Coeffs # class2

  1    13.0421     0.0000 # cp-cp-cp-oc
  2     4.8912     0.0000 # cp-cp-cp-hc
  3     7.8153     0.0000 # cp-cp-cp-c
  4     0.0000     0.0000 
  5     0.0000     0.0000 
  6     0.0000     0.0000 
  7     0.0000     0.0000 
  8     0.0000     0.0000 
  9     0.0000     0.0000 
 10     0.0000     0.0000 
 11     0.0000     0.0000 
 12     0.0000     0.0000 
 13     0.0000     0.0000 
 14     0.0000     0.0000 
 15     0.0000     0.0000 
 16     0.0000     0.0000 

BondBond Coeffs

  1    68.2856     1.4170     1.4170 
  2    48.4754     1.4170     1.3768 
  3     1.0795     1.4170     1.0982 
  4    12.0676     1.4170     1.5010 
  5     0.0000     1.5010     1.5010 
  6     0.0000     1.5010     1.5300 
  7     0.0000     1.5300     1.5300 
  8     3.3872     1.5300     1.1010 
  9     5.3316     1.1010     1.1010 
 10    11.4318     1.5300     1.4200 
 11     3.3872     1.5300     1.1010 
 12    23.1979     1.4200     1.1010 
 13     5.3316     1.1010     1.1010 
 14     0.0000     1.5300     1.5300 
 15    11.4318     1.5300     1.4200 
 16     3.3872     1.5300     1.1010 
 17    11.4318     1.5300     1.4200 
 18     3.3872     1.5300     1.1010 
 19    23.1979     1.4200     1.1010 
 20     5.3316     1.1010     1.1010 
 21    -7.1131     1.3768     1.4200 
 22    -7.1131     1.4200     1.4200 

BondAngle Coeffs

  1    28.8708    28.8708     1.4170     1.4170 
  2    58.4790   107.6806     1.4170     1.3768 
  3    20.0033    24.2183     1.4170     1.0982 
  4    31.0771    47.0579     1.4170     1.5010 
  5     0.0000     0.0000     1.5010     1.5010 
  6     0.0000     0.0000     1.5010     1.5300 
  7     8.0160     8.0160     1.5300     1.5300 
  8    20.7540    11.4210     1.5300     1.1010 
  9    18.1030    18.1030     1.1010     1.1010 
 10     2.6868    20.4033     1.5300     1.4200 
 11    20.7540    11.4210     1.5300     1.1010 
 12    55.3270     4.6189     1.4200     1.1010 
 13    18.1030    18.1030     1.1010     1.1010 
 14     8.0160     8.0160     1.5300     1.5300 
 15     2.6868    20.4033     1.5300     1.4200 
 16    20.7540    11.4210     1.5300     1.1010 
 17     2.6868    20.4033     1.5300     1.4200 
 18    20.7540    11.4210     1.5300     1.1010 
 19    55.3270     4.6189     1.4200     1.1010 
 20    18.1030    18.1030     1.1010     1.1010 
 21    -2.8112    -2.8112     1.3768     1.4200 
 22    -2.8112    -2.8112     1.4200     1.4200 

AngleAngle Coeffs

  1     0.0000     0.0000     0.0000   118.9000   123.4200   123.4200 
  2     0.0000     0.0000     0.0000   118.9000   117.9400   117.9400 
  3     0.0000     0.0000     0.0000   118.9000   120.0500   120.0500 
  4     0.0000     0.0000     0.0000   111.0000   108.4000   108.4000 
  5     0.0000     0.0000     0.0000   108.4000   112.6700   108.4000 
  6     0.2738    -0.4825     0.2738   110.7700   107.6600   110.7700 
  7    -0.3157    -0.3157    -0.3157   107.6600   107.6600   107.6600 
  8     0.1689     2.5926     3.9177   111.2700   108.7280   110.7700 
  9     0.2738    -0.4825     0.2738   110.7700   107.6600   110.7700 
 10     2.4259     2.1283     2.4259   108.7280   107.6600   108.7280 
 11    -0.8330    -0.8330    -3.5744   112.6700   111.2700   111.2700 
 12    -1.3199    -1.3199     0.1184   112.6700   110.7700   110.7700 
 13     0.1689     2.5926     3.9177   111.2700   108.7280   110.7700 
 14     0.1689     2.5926     3.9177   111.2700   108.7280   110.7700 
 15     0.2738    -0.4825     0.2738   110.7700   107.6600   110.7700 
 16     2.4259     2.1283     2.4259   108.7280   107.6600   108.7280 

AngleAngleTorsion Coeffs

  1     0.0000   118.9000   118.9000 
  2    -4.8141   118.9000   117.9400 
  3   -21.0247   118.9000   123.4200 
  4     4.2296   123.4200   117.9400 
  5     0.0000   123.4200   102.9695 
  6     0.3598   117.9400   117.9400 
  7   -14.4097   118.9000   120.0500 
  8     4.4444   120.0500   117.9400 
  9     0.0000   120.0500   111.0000 
 10     0.0000   120.0500   108.4000 
 11     0.0000   108.4000   110.7700 
 12   -16.1640   112.6700   110.7700 
 13   -29.0420   111.2700   112.6700 
 14   -14.0484   111.2700   111.2700 
 15   -20.2006   111.2700   110.7700 
 16   -16.1640   110.7700   112.6700 
 17   -20.2006   110.7700   111.2700 
 18   -12.5640   110.7700   110.7700 
 19     0.0000   111.2700   102.9695 
 20   -16.4438   108.7280   102.9695 
 21   -29.0420   112.6700   111.2700 
 22   -16.1640   112.6700   110.7700 
 23   -20.2006   111.2700   110.7700 
 24   -12.5640   110.7700   110.7700 
 25   -19.0059   111.2700   104.5000 
 26   -16.4438   108.7280   104.5000 

EndBondTorsion Coeffs

1    -0.1185     6.3204     0.0000    -0.1185     6.3204     0.0000     1.4170     1.4170 
2     0.0000    -6.8958     0.0000     0.0000    -0.4669     0.0000     1.4170     1.0982 
3     0.0000     0.2655     0.0000     0.0000     4.8905     0.0000     1.4170     1.3768 
4     0.0000     4.2641     0.0000     0.0000    -1.5867     0.0000     1.3768     1.0982 
5     0.0000   -10.4096     0.0000     0.0000   -22.4567     0.0000     1.4170     1.4200 
6     0.0000    -0.6890     0.0000     0.0000    -0.6890     0.0000     1.0982     1.0982 
7     0.0000    -0.6918     0.0000     0.0000     0.2421     0.0000     1.4170     1.5010 
8     0.0000    -1.7970     0.0000     0.0000    -0.4879     0.0000     1.5010     1.0982 
9    -0.1185     6.3204     0.0000    -0.1185     6.3204     0.0000     1.4170     1.5010 
10     0.0000     0.0000     0.0000     0.0000     0.0000     0.0000     1.4170     1.5300 
11     0.0000     0.0000     0.0000     0.0000     0.0000     0.0000     1.5010     1.1010 
12     0.2486     0.2422    -0.0925     0.0814     0.0591     0.2219     1.5300     1.1010 
13     1.1538     0.8409    -0.9138    -0.3190     0.4411    -0.7174     1.4200     1.5300 
14     1.0165     0.7553    -0.4609     1.0165     0.7553    -0.4609     1.4200     1.4200 
15     0.5903     0.6669     0.8584     0.9681     0.9551     0.0436     1.4200     1.1010 
16     0.0814     0.0591     0.2219     0.2486     0.2422    -0.0925     1.1010     1.5300 
17     0.9681     0.9551     0.0436     0.5903     0.6669     0.8584     1.1010     1.4200 
18     0.2130     0.3120     0.0777     0.2130     0.3120     0.0777     1.1010     1.1010 
19    -0.2456     1.0517    -0.7795     0.4741     1.2635     0.5576     1.5300     1.3768 
20    -0.6054     1.3339     0.9648    -0.1620     0.1564    -1.1408     1.1010     1.3768 
21    -0.3190     0.4411    -0.7174     1.1538     0.8409    -0.9138     1.5300     1.4200 
22     0.2486     0.2422    -0.0925     0.0814     0.0591     0.2219     1.5300     1.1010 
23     0.5903     0.6669     0.8584     0.9681     0.9551     0.0436     1.4200     1.1010 
24     0.2130     0.3120     0.0777     0.2130     0.3120     0.0777     1.1010     1.1010 
25    -0.2456     1.0517    -0.7795     0.4741     1.2635     0.5576     1.5300     1.4200 
26    -0.6054     1.3339     0.9648    -0.1620     0.1564    -1.1408     1.1010     1.4200 

MiddleBondTorsion Coeffs

  1    27.5989    -2.3120     0.0000     1.4170 
  2     0.0000    -1.1521     0.0000     1.4170 
  3     0.0000     4.8255     0.0000     1.4170 
  4     0.0000     5.5432     0.0000     1.4170 
  5    -5.9288    -2.7007    -0.3175     1.3768 
  6     0.0000     4.8228     0.0000     1.4170 
  7     0.0000     9.1792     0.0000     1.4170 
  8     0.0000     3.9421     0.0000     1.4170 
  9     0.0000     0.0000     0.0000     1.5010 
 10     0.0000     0.0000     0.0000     1.5010 
 11     0.0000     0.0000     0.0000     1.5300 
 12   -14.8790    -3.6581    -0.3138     1.5300 
 13   -21.8842    -7.6764    -0.6868     1.5300 
 14   -17.2585    -3.6157    -0.8364     1.5300 
 15   -16.7975    -1.2296    -0.2750     1.5300 
 16   -14.8790    -3.6581    -0.3138     1.5300 
 17   -16.7975    -1.2296    -0.2750     1.5300 
 18   -14.2610    -0.5322    -0.4864     1.5300 
 19    -5.9288    -2.7007    -0.3175     1.4200 
 20    -6.8007    -4.6546    -1.4101     1.4200 
 21   -21.8842    -7.6764    -0.6868     1.5300 
 22   -14.8790    -3.6581    -0.3138     1.5300 
 23   -16.7975    -1.2296    -0.2750     1.5300 
 24   -14.2610    -0.5322    -0.4864     1.5300 
 25    -5.9288    -2.7007    -0.3175     1.4200 
 26    -6.8007    -4.6546    -1.4101     1.4200 

BondBond13 Coeffs

  1    53.0000     1.4170     1.4170 
  2    -6.2741     1.4170     1.0982 
  3    -2.2436     1.4170     1.3768 
  4     2.0517     1.3768     1.0982 
  5   -73.8410     1.4170     1.4200 
  6    -1.7077     1.0982     1.0982 
  7     2.5085     1.4170     1.5010 
  8     0.8743     1.5010     1.0982 
  9     2.5085     1.4170     1.5010 
 10     2.5085     1.4170     1.5300 
 11    -3.4826     1.5010     1.1010 
 12     0.0000     1.5300     1.1010 
 13     0.0000     1.4200     1.5300 
 14     0.0000     1.4200     1.4200 
 15     0.0000     1.4200     1.1010 
 16     0.0000     1.1010     1.5300 
 17     0.0000     1.1010     1.4200 
 18     0.0000     1.1010     1.1010 
 19   -73.8410     1.5300     1.3768 
 20    -1.7133     1.1010     1.3768 
 21     0.0000     1.5300     1.4200 
 22     0.0000     1.5300     1.1010 
 23     0.0000     1.4200     1.1010 
 24     0.0000     1.1010     1.1010 
 25     0.0000     1.5300     1.4200 
 26     0.0000     1.1010     1.4200 

AngleTorsion Coeffs

  1     1.9767     1.0239     0.0000     1.9767     1.0239     0.0000   118.9000   118.9000 
  2     0.0000     2.5014     0.0000     0.0000     2.7147     0.0000   118.9000   117.9400 
  3     0.0000    10.0155     0.0000     0.0000     1.7404     0.0000   118.9000   123.4200 
  4     0.0000     2.5706     0.0000     0.0000     1.8729     0.0000   123.4200   117.9400 
  5     0.0000    35.3158     0.0000     0.0000    38.1416     0.0000   123.4200   102.9695 
  6     0.0000     2.4501     0.0000     0.0000     2.4501     0.0000   117.9400   117.9400 
  7     0.0000     3.8987     0.0000     0.0000    -4.4683     0.0000   118.9000   120.0500 
  8     0.0000    -0.1242     0.0000     0.0000     3.4601     0.0000   120.0500   117.9400 
  9     1.9767     1.0239     0.0000     1.9767     1.0239     0.0000   120.0500   111.0000 
 10     0.0000     0.0000     0.0000     0.0000     0.0000     0.0000   120.0500   108.4000 
 11     0.0000     0.0000     0.0000     0.0000     0.0000     0.0000   108.4000   110.7700 
 12    -0.2454     0.0000    -0.1136     0.3113     0.4516    -0.1988   112.6700   110.7700 
 13     0.9672    -0.7566    -1.2331     0.5623    -0.3041    -0.4015   111.2700   112.6700 
 14     0.5511     0.9737    -0.6673     0.5511     0.9737    -0.6673   111.2700   111.2700 
 15    -0.1892     0.4918     0.7273     2.3668     2.4920    -1.0122   111.2700   110.7700 
 16     0.3113     0.4516    -0.1988    -0.2454     0.0000    -0.1136   110.7700   112.6700 
 17     2.3668     2.4920    -1.0122    -0.1892     0.4918     0.7273   110.7700   111.2700 
 18    -0.8085     0.5569    -0.2466    -0.8085     0.5569    -0.2466   110.7700   110.7700 
 19    -2.7466     1.4877    -0.8955     0.5676     0.9450     0.0703   111.2700   102.9695 
 20    -1.8234     1.6393     0.5144    -0.7777     0.4340    -0.6653   108.7280   102.9695 
 21     0.5623    -0.3041    -0.4015     0.9672    -0.7566    -1.2331   112.6700   111.2700 
 22    -0.2454     0.0000    -0.1136     0.3113     0.4516    -0.1988   112.6700   110.7700 
 23    -0.1892     0.4918     0.7273     2.3668     2.4920    -1.0122   111.2700   110.7700 
 24    -0.8085     0.5569    -0.2466    -0.8085     0.5569    -0.2466   110.7700   110.7700 
 25    -2.7466     1.4877    -0.8955     0.5676     0.9450     0.0703   111.2700   104.5000 
 26    -1.8234     1.6393     0.5144    -0.7777     0.4340    -0.6653   108.7280   104.5000 

Atoms # full

      1      1   1  0.026500     4.007543058    10.875398027     8.944878390   0   0   0 # cp
      2      1   1 -0.126800     4.463706968    11.749871733     9.929085901   0   0   0 # cp
      3      1   1 -0.126800     4.993493521    13.001761629     9.565050466   0   0   0 # cp
      4      1   1  0.000000     5.284076976    13.330512157     8.206795920   0   0   0 # cp
      5      1   1 -0.126800     4.898512507    12.357814519     7.269369089   0   0   0 # cp
      6      1   1 -0.126800     4.302103080    11.214383766     7.599965307   0   0   0 # cp
      7      1   2  0.000000     6.261958102    14.447516160     7.792718317   0   0   0 # c
      8      1   1  0.000000     7.491308302    13.801677779     7.057689199   0   0   0 # cp
      9      1   1 -0.126800     8.199928705    14.391782046     5.977363075   0   0   0 # cp
     10      1   1 -0.126800     9.309388742    13.780779610     5.416997515   0   0   0 # cp
     11      1   1  0.026500     9.927227552    12.696315409     6.034583333   0   0   0 # cp
     12      1   1 -0.126800     9.292071012    12.195277686     7.165677384   0   0   0 # cp
     13      1   1 -0.126800     8.153107077    12.754462407     7.704727728   0   0   0 # cp
     14      1   3 -0.159000     5.491806848    15.419091353     6.886779035   0   0   0 # c3
     15      1   3 -0.159000     6.758600897    15.165941479     9.084261687   0   0   0 # c3
     16      1   4  0.027000     2.340567287     9.277663795     8.258935861   0   0   0 # c2
     17      1   5  0.080000     1.168183793     8.573031705     8.906899799   0   0   0 # c3h
     18      1   5  0.027000     0.837476906     8.609843719    10.363196658   0   0   0 # c3h
     19      1   6 -0.159500     3.334681945     9.733546023     9.190134560   0   0   0 # oc
     20      1   6 -0.159500    11.136495708    12.199123749     5.592718867   0   0   0 # oc
     21      1   4  0.027000    11.848810540    12.893263128     4.559831834   0   0   0 # c2
     22      1   5  0.080000    13.302013304    12.309705745     4.199713519   0   0   0 # c3h
     23      1   5  0.027000    14.016263982    11.297197803     4.955834047   0   0   0 # c3h
     24      1   7 -0.266000    51.331920626     9.446236912     9.486410509  -1   0   0 # o3e
     25      1   7 -0.266000    14.383703543    12.668465090     5.177325744   0   0   0 # o3e
     26      1   8  0.126800     4.071588284    11.570282226    10.953890608   0   0   0 # hc
     27      1   8  0.126800     5.221216570    13.741334605    10.354653913   0   0   0 # hc
     28      1   8  0.126800     5.256684631    12.389927449     6.228750292   0   0   0 # hc
     29      1   8  0.126800     4.157489811    10.447621284     6.836730896   0   0   0 # hc
     30      1   8  0.126800     7.816526521    15.262442462     5.482889385   0   0   0 # hc
     31      1   8  0.126800     9.846322954    14.453534386     4.719581619   0   0   0 # hc
     32      1   8  0.126800     9.707329692    11.351060460     7.724939774   0   0   0 # hc
     33      1   8  0.126800     7.763288266    12.204422295     8.643810225   0   0   0 # hc
     34      1   8  0.053000     4.582697538    15.852627404     7.432095060   0   0   0 # hc
     35      1   8  0.053000     5.209260130    14.963526956     5.975263396   0   0   0 # hc
     36      1   8  0.053000     6.096508468    16.292455589     6.594815877   0   0   0 # hc
     37      1   8  0.053000     7.134074969    14.584886885     9.946016964   0   0   0 # hc
     38      1   8  0.053000     5.864305006    15.711563528     9.624513088   0   0   0 # hc
     39      1   8  0.053000     7.613589452    15.825909512     8.971423028   0   0   0 # hc
     40      1   8  0.053000     1.850709820    10.130965010     7.765200387   0   0   0 # hc
     41      1   8  0.053000     2.849134280     8.618091568     7.570148368   0   0   0 # hc
     42      1   8  0.053000     0.652752095     7.861723540     8.176913553   0   0   0 # hc
     43      1   8  0.053000     1.507412148     9.111192573    11.058454105   0   0   0 # hc
     44      1   8  0.053000     0.322650803     7.778147376    10.845105786   0   0   0 # hc
     45      1   8  0.053000    11.257321178    12.856770408     3.626717352   0   0   0 # hc
     46      1   8  0.053000    12.008256456    13.942442865     4.907312585   0   0   0 # hc
     47      1   8  0.053000    13.487741215    12.460338096     3.103771557   0   0   0 # hc
     48      1   8  0.053000    14.790168329    10.658288066     4.493148342   0   0   0 # hc
     49      1   8  0.053000    13.461579343    10.747370731     5.745000966   0   0   0 # hc
     50      2   1  0.026500    11.969794515     1.464122056    22.932157761   0   0   0 # cp
     51      2   1 -0.126800    11.110082515     1.439864683    24.003309212   0   0   0 # cp
     52      2   1 -0.126800    10.779490156     2.594907763    24.715219579   0   0   0 # cp
     53      2   1  0.000000    11.351574804     3.841066394    24.406125202   0   0   0 # cp
     54      2   1 -0.126800    12.364482113     3.792633119    23.444722960   0   0   0 # cp
     55      2   1 -0.126800    12.612512013     2.656949611    22.714590951   0   0   0 # cp
     56      2   2  0.000000    10.930704158     5.069784269    25.206615347   0   0   0 # c
     57      2   1  0.000000    12.150220140     5.981429465    25.348895479   0   0   0 # cp
     58      2   1 -0.126800    13.252006257     5.508526259    26.066081297   0   0   0 # cp
     59      2   1 -0.126800    14.356496785     6.313634124    26.360540839   0   0   0 # cp
     60      2   1  0.026500    14.404772765     7.625039274    25.945910279   0   0   0 # cp
     61      2   1 -0.126800    13.409802332     8.060567849    25.095311937   0   0   0 # cp
     62      2   1 -0.126800    12.333706477     7.269363517    24.789838541   0   0   0 # cp
     63      2   3 -0.159000     9.830671874     5.830094249    24.341949632   0   0   0 # c3
     64      2   3 -0.159000    10.353652371     4.883722346    26.691618723   0   0   0 # c3
     65      2   4  0.027000    11.118556300    51.087916344    21.308778792   0  -1   0 # c2
     66      2   5  0.080000    11.099701964    49.565626608    21.079431570   0  -1   0 # c3h
     67      2   5  0.027000    11.920470486    48.542329669    21.815240103   0  -1   0 # c3h
     68      2   6 -0.159500    12.207142385    51.510032553    22.186844101   0  -1   0 # oc
     69      2   6 -0.159500    15.549710496     8.339683309    26.158650096   0   0   0 # oc
     70      2   4  0.027000    16.335945454     8.124952657    27.331748115   0   0   0 # c2
     71      2   5  0.080000    17.298157835     9.192560428    27.770191385   0   0   0 # c3h
     72      2   5  0.027000    17.503535598    10.557327952    27.189326263   0   0   0 # c3h
     73      2   7 -0.266000    10.631795346    48.842610014    22.241755818   0  -1   0 # o3e
     74      2   7 -0.266000    18.376266963     9.522156799    26.838404023   0   0   0 # o3e
     75      2   8  0.126800    10.450259262    51.744023850    24.221275454   0  -1   0 # hc
     76      2   8  0.126800     9.854027095     2.545826638    25.314377835   0   0   0 # hc
     77      2   8  0.126800    12.993376369     4.681395512    23.312279821   0   0   0 # hc
     78      2   8  0.126800    13.441872851     2.757164504    21.998782266   0   0   0 # hc
     79      2   8  0.126800    13.225009710     4.518539822    26.484838022   0   0   0 # hc
     80      2   8  0.126800    15.134088715     5.815344410    26.963477254   0   0   0 # hc
     81      2   8  0.126800    13.671293900     8.931829488    24.576774714   0   0   0 # hc
     82      2   8  0.126800    11.492618634     7.619421919    24.073747791   0   0   0 # hc
     83      2   8  0.053000     8.932683357     5.061437307    24.185811765   0   0   0 # hc
     84      2   8  0.053000    10.088612412     6.137850416    23.287359829   0   0   0 # hc
     85      2   8  0.053000     9.356093188     6.685080772    24.867293552   0   0   0 # hc
     86      2   8  0.053000    10.009572804     5.862154718    27.153959831   0   0   0 # hc
     87      2   8  0.053000    11.162323271     4.520717842    27.253427257   0   0   0 # hc
     88      2   8  0.053000     9.499984898     4.236963165    26.658721298   0   0   0 # hc
     89      2   8  0.053000    10.145900461    51.453352931    21.708400989   0  -1   0 # hc
     90      2   8  0.053000    11.301394878    51.663822767    20.369802538   0  -1   0 # hc
     91      2   8  0.053000    10.718008038    49.310233062    20.102557066   0  -1   0 # hc
     92      2   8  0.053000    12.761319018    48.868875439    22.461512874   0  -1   0 # hc
     93      2   8  0.053000    12.140946388    47.518958004    21.467476685   0  -1   0 # hc
     94      2   8  0.053000    15.567035770     8.098992409    28.139846452   0   0   0 # hc
     95      2   8  0.053000    16.803043107     7.141658558    27.231160950   0   0   0 # hc
     96      2   8  0.053000    17.643567725     8.985737182    28.807680157   0   0   0 # hc
     97      2   8  0.053000    17.994905638    11.314255900    27.842849987   0   0   0 # hc
     98      2   8  0.053000    16.955155170    10.999520580    26.325424249   0   0   0 # hc
     99      3   1  0.026500    43.609819210    21.766956815    24.902581360   0   0   0 # cp
    100      3   1 -0.126800    44.511862230    22.299173678    23.975702298   0   0   0 # cp
    101      3   1 -0.126800    45.757009027    21.813737615    23.937313388   0   0   0 # cp
    102      3   1  0.000000    46.242760224    20.921959904    24.909340471   0   0   0 # cp
    103      3   1 -0.126800    45.291462988    20.325065235    25.780920180   0   0   0 # cp
    104      3   1 -0.126800    43.988250072    20.773068239    25.757690877   0   0   0 # cp
    105      3   2  0.000000    47.692931148    20.585150267    25.084720289   0   0   0 # c
    106      3   1  0.000000    48.039378409    20.548629582    26.562312290   0   0   0 # cp
    107      3   1 -0.126800    47.422270268    21.443545266    27.432853564   0   0   0 # cp
    108      3   1 -0.126800    47.809646175    21.523046986    28.836282504   0   0   0 # cp
    109      3   1  0.026500    48.743967736    20.538815420    29.361197264   0   0   0 # cp
    110      3   1 -0.126800    49.293246843    19.646213420    28.450449372   0   0   0 # cp
    111      3   1 -0.126800    49.002830363    19.673708691    27.106332262   0   0   0 # cp
    112      3   3 -0.159000    47.889419591    19.292988845    24.319889728   0   0   0 # c3
    113      3   3 -0.159000    48.700589745    21.582317810    24.529115652   0   0   0 # c3
    114      3   4  0.027000    41.348861428    21.861743689    25.706433753   0   0   0 # c2
    115      3   5  0.080000    39.971411263    22.577376025    25.874891730   0   0   0 # c3h
    116      3   5  0.027000    39.367732330    23.778278381    25.187183480   0   0   0 # c3h
    117      3   6 -0.159500    42.449063878    22.447690052    24.987994831   0   0   0 # oc
    118      3   6 -0.159500    49.198566977    20.421167773    30.703072903   0   0   0 # oc
    119      3   4  0.027000    49.127585306    21.548126678    31.530526500   0   0   0 # c2
    120      3   5  0.080000    48.104519604    21.616554543    32.662619192   0   0   0 # c3h
    121      3   5  0.027000    47.512874072    20.413838572    33.164407598   0   0   0 # c3h
    122      3   7 -0.266000    38.962486324    22.455091801    24.872175817   0   0   0 # o3e
    123      3   7 -0.266000    46.670944081    21.342271029    32.388774377   0   0   0 # o3e
    124      3   8  0.126800    44.195502737    23.016942993    23.210344247   0   0   0 # hc
    125      3   8  0.126800    46.449619407    22.474736853    23.406992246   0   0   0 # hc
    126      3   8  0.126800    45.521656436    19.458453231    26.455504228   0   0   0 # hc
    127      3   8  0.126800    43.218859113    20.371893662    26.364740420   0   0   0 # hc
    128      3   8  0.126800    46.736538164    22.262091053    27.197878756   0   0   0 # hc
    129      3   8  0.126800    47.171857662    22.117081053    29.460403389   0   0   0 # hc
    130      3   8  0.126800    50.098248249    18.916044643    28.768374873   0   0   0 # hc
    131      3   8  0.126800    49.398184457    18.935246579    26.433123949   0   0   0 # hc
    132      3   8  0.053000    47.253446864    19.212136222    23.462390988   0   0   0 # hc
    133      3   8  0.053000    47.739392134    18.447715441    25.011806883   0   0   0 # hc
    134      3   8  0.053000    48.947802236    19.202005638    24.020538933   0   0   0 # hc
    135      3   8  0.053000    48.521817055    22.648771801    24.760598679   0   0   0 # hc
    136      3   8  0.053000    48.654895594    21.647942810    23.431671052   0   0   0 # hc
    137      3   8  0.053000    49.720851813    21.420313118    24.948785951   0   0   0 # hc
    138      3   8  0.053000    41.166243643    20.870493884    25.241837365   0   0   0 # hc