LAMMPS (3 Mar 2020)
####################################
# Example LAMMPS input script      #
# for a simple Lennard Jones fluid #
####################################


units		real
atom_style	atomic
dimension	3
boundary	p p p

lattice 	custom 13 a1 1.0 0.0 0.0 a2 0.0 1.0 0.0 a3 0.0 0.0 2.0 		basis 0.0 0.0 0.0 basis 0.5 0.5 0.5 		basis 0.25 0.25 0.0 basis 0.75 0.75 0.0 basis 0.75 0.25 0.5 basis 0.25 0.75 0.5
Lattice spacing in x,y,z = 13 13 26
region 	space block 0 4 0 4 0 4
create_box 	2 space
Created orthogonal box = (0 0 0) to (52 52 104)
  1 by 1 by 1 MPI processor grid
create_atoms 	1 box basis 3 2 basis 4 2 basis 5 2 basis 6 2
Created 384 atoms
  create_atoms CPU = 0.000241564 secs

####################################
# 2) Define interparticle interactions
#   - Here, we use truncated & shifted LJ
#   - All atoms of type 1 (in this case, all atoms)
#     have a mass of 1.0
####################################

pair_style	lj/cut 15
pair_modify	shift yes
pair_coeff	1 1 0.5 4.25
pair_coeff	1 2 1.45 5.75 #0.8 7.5
pair_coeff	2 2 1.0 7.5 #0.6 10.0
mass		1 102.181
mass		2 340.419

####################################
# 3) Neighbour lists
#   - Each atom will only consider neighbours
#     within a distance of 2.8 of each other
#   - The neighbour lists are recalculated
#     every timestep
####################################

neighbor        0.3 bin
neigh_modify    delay 10 every 1

####################################
# 4) Define simulation parameters
#   - We fix the temperature and
#     linear and angular momenta
#     of the system
#   - We run with fixed number (n),
#     volume (v), temperature (t)
####################################

#fix		LinMom all momentum 50 linear 1 1 1 angular
#fix		1 all nvt temp 1.00 1.00 5.0
fix 		1 all npt temp 373.0.0 373.0 25.0 iso 1.0 1.0  10.0

####################################
# 5) Final setup
#   - Define starting particle velocity
#   - Define timestep
#   - Define output system properties (temp, energy, etc.)
#   - Define simulation length
####################################

velocity	all create 373.0 199085 mom no

timestep	0.5

thermo_style	custom step temp press vol density


run_style	verlet

thermo		1000
run		4000000
Neighbor list info ...
  update every 1 steps, delay 10 steps, check yes
  max neighbors/atom: 2000, page size: 100000
  master list distance cutoff = 15.3
  ghost atom cutoff = 15.3
  binsize = 7.65, bins = 7 7 14
  1 neighbor lists, perpetual/occasional/extra = 1 0 0
  (1) pair lj/cut, perpetual
      attributes: half, newton on
      pair build: half/bin/atomonly/newton
      stencil: half/bin/3d/newton
      bin: standard
Per MPI rank memory allocation (min/avg/max) = 3.088 | 3.088 | 3.088 Mbytes
Step Temp Press Volume Density 
       0          373    18332.499       281216   0.59182227 
    1000    366.10244   0.31638047     942038.3   0.17666998 
    2000    376.63287  0.033902342    826534.26   0.20135873 
    3000    347.91541    -1.225648    645370.66   0.25788264 
    4000    390.40163   0.18445201    559570.05   0.29742459 
    5000    355.52992   0.54255514    514460.39    0.3235038 
    6000     391.5514    1.6330203    487140.14   0.34164685 
    7000    356.61934    1.1108664    473124.48   0.35176766 
    8000    375.92639    1.8305653    473775.46   0.35128432 
    9000    370.32703   0.71331168     458003.3   0.36338142 
   10000    377.13583    1.3272357    443912.52   0.37491596 
   11000    387.54614   0.92028875    433803.03   0.38365313 
   12000    351.24698   0.65054535    405970.69   0.40995543 
   13000    387.69323   0.70182118    405498.51   0.41043281 
   14000    376.34973    18.387785    380962.95   0.43686634 
   15000    373.95804    1.1494012    364725.31   0.45631572 
   16000    369.66091  -0.12129522     334830.5   0.49705714 
   17000    331.56933   -1.3228899    318146.47    0.5231235 
   18000    375.45618   0.44609039    299489.65   0.55571167 
   19000     354.7339   0.66574843    288387.48   0.57710511 
   20000     382.8299   0.75286942    272507.58    0.6107349 
   21000    358.05427  -0.92778159     254928.2   0.65285006 
   22000    386.01725   -8.8181456    239309.77   0.69545799 
   23000    395.46049     1.825213    225259.22   0.73883719 
   24000    356.45691  -0.15173941    215252.06   0.77318605 
   25000    393.69976   0.62794975    205659.29   0.80925053 
   26000    354.69796    2.1883069    198214.32   0.83964617 
   27000     373.8018    76.582323    186842.53   0.89074949 
   28000    356.41236  -0.10670185    185784.45   0.89582252 
   29000    365.95333  -0.95179999    180527.34   0.92190963 
   30000    374.88767   -146.50609    181923.69   0.91483355 
   31000    370.12331   -1.4723548    173209.48   0.96085901 
   32000    375.69732    48.004054    168819.27   0.98584651 
   33000    393.88858    1.9719592    168790.14   0.98601667 
   34000    334.91537   -10.186088    166741.69   0.99813002 
   35000    381.79191   -2.1383844    168928.85   0.98520706 
   36000    371.23638    62.523786    165159.55    1.0076916 
   37000    405.24848     3.345344    162889.12    1.0217373 
   38000    368.67234   -37.078758    163008.34      1.02099 
   39000    367.94757   -3.1389062    164107.88    1.0141493 
   40000    380.20873    31.342148    161576.08    1.0300404 
   41000    365.03068    1.0266941    162661.95    1.0231643 
   42000    401.45828   -5.6322861    161065.96    1.0333027 
   43000    361.69802    14.927922    157927.65    1.0538363 
   44000    373.70786     -3.23382    159002.59    1.0467118 
   45000    393.45969    -94.11194    162160.49    1.0263283 
   46000    369.15251  -0.62529168    157236.33    1.0584697 
   47000    377.71749   -2.8701667    156218.78    1.0653642 
   48000    376.56871    24.626183    154614.88    1.0764158 
   49000    364.57062   -1.0329354    154577.26    1.0766777 
   50000    374.47731   0.83039171    153014.36     1.087675 
   51000    372.95075     159.2261     146373.9    1.1370189 
   52000    372.76203   0.58677894    150097.97    1.1088084 
   53000    377.07414   -2.5885692    149879.73     1.110423 
   54000    381.35638    50.028602    147307.92    1.1298095 
   55000    347.67285    2.2665131    145930.19    1.1404761 
   56000    404.93514    27.299387    145543.55    1.1435058 
   57000    367.81964    15.897479    146783.07    1.1338493 
   58000    381.79876  -0.24149264    145697.49    1.1422976 
   59000    366.50535    1.0084564    145944.51    1.1403642 
   60000    352.05893   -40.607848    148041.43    1.1242116 
   61000    374.92627   0.36413716    146679.24     1.134652 
   62000    364.46995   -44.487542    147186.09    1.1307447 
   63000    390.99982    4.2028266    147002.48     1.132157 
   64000    364.98041   -7.4547699    146125.18    1.1389542 
   65000    379.27773    3.7056176    144821.66    1.1492058 
   66000    364.16277   -1.7468607    144819.73    1.1492211 
   67000    374.35288   -48.643638    145178.77     1.146379 
   68000    370.31054    6.2646388     144181.2    1.1543106 
   69000     382.0909   -19.269057    145987.22    1.1400306 
   70000    365.50987   -4.8407328    146577.22    1.1354417 
   71000    382.12227    -1.602613    148443.21    1.1211688 
   72000    368.63709   -3.2951833    146677.12    1.1346684 
   73000    405.41416    216.12797    143552.47    1.1593662 
   74000    361.84423   -3.6110559    146240.18    1.1380586 
   75000    377.59025    17.232291    145357.64    1.1449683 
   76000    361.67741    3.5891893    147309.83    1.1297949 
   77000     368.8861    5.1067057     146951.9    1.1325467 
   78000    388.88064    2.3508083    147123.83    1.1312232 
   79000    368.37276   -76.083837    146811.89    1.1336268 
   80000    374.87823   -9.3152092    148275.49     1.122437 
   81000    402.27304   -1.7264908    147632.75    1.1273236 
   82000    370.95936   -31.132135    147162.74    1.1309241 
   83000    373.79528    4.1496154    145665.48    1.1425486 
   84000    379.87794    1.1309708    145508.09    1.1437845 
   85000    369.79997    2.7438283    145324.01    1.1452333 
   86000    375.49608    1.5637478    146799.99    1.1337187 
   87000    374.07862    79.250426    144357.51    1.1529008 
   88000    366.25876   -1.1315658    146502.89    1.1360178 
   89000    391.73062    8.1989302     145419.6    1.1444805 
   90000    368.93316    160.95223    141197.23     1.178705 
   91000    329.16246    18.395571    144129.91    1.1547214 
   92000     371.8275  -0.68731523    144534.95    1.1514854 
   93000    358.52344    1.8344599    144087.01    1.1550652 
   94000    396.83744    -21.86236    146264.19    1.1378718 
   95000    364.94355    157.55201    141057.88    1.1798695 
   96000    380.64696    1.2821416    144662.89    1.1504671 
   97000    361.74097  -0.55946371    146421.66     1.136648 
   98000    367.97752     56.45203    146972.09    1.1323911 
   99000    364.24976   -12.207666     147755.6    1.1263864 
  100000    394.57657  -0.39480987     149393.3    1.1140385 
  101000    388.78616    172.89104    144473.11    1.1519784 
  102000    393.05954     3.302559    148296.42    1.1222786 
  103000    366.38569   -16.969752    149022.09    1.1168136 
  104000    386.79514    3.3901437    149681.62    1.1118926 
  105000    350.62869    103.72969    145102.34    1.1469828 
  106000    377.04436    1.2320698    146873.89    1.1331482 
  107000    373.37651    213.18293    142154.38    1.1707687 
  108000    383.83236   -1.8450656    145794.26    1.1415394 
  109000    362.37513    9.3332958    145324.16    1.1452321 
  110000     387.7361    21.507615    147241.53     1.130319 
  111000    356.56916    5.6441297    146503.79    1.1360108 
  112000    391.29811   -10.519545     147717.4    1.1266776 
  113000    362.22094   0.18020239    147901.73    1.1252735 
  114000    371.51791    -3.567942    148063.88    1.1240412 
  115000    362.02405    205.27654    144122.27    1.1547826 
  116000    392.29303   -2.3909768    146761.54    1.1340157 
  117000    373.59122    -6.135071    146168.14    1.1386194 
  118000    384.60396    212.17953    143186.85    1.1623267 
  119000    365.37488   0.16798117    146397.27    1.1368374 
  120000    382.70532   -2.0219521    145911.96    1.1406185 
  121000    359.56701   -166.38632    149434.69      1.11373 
  122000    374.93374    4.0085055    145317.32     1.145286 
  123000     340.2853 -0.0021619635    145768.65    1.1417399 
  124000    391.36545   -62.261018    146742.02    1.1341665 
  125000    366.37794     4.193459     144712.8    1.1500703 
  126000    375.74976   -59.731856    145809.97    1.1414164 
  127000    343.46855   -14.599178    143780.45     1.157528 
  128000    388.62403    3.6955573    143200.78    1.1622136 
  129000    353.19972   -121.67621    145897.43    1.1407321 
  130000    372.55028    7.1374493    144292.76    1.1534182 
  131000    368.72652    4.9492183    144081.69    1.1551079 
  132000    375.91665   -147.65553    148541.95    1.1204235 
  133000    389.47612    11.818593    144240.23    1.1538382 
  134000    346.54941    5.2885954    146430.47    1.1365796 
  135000    375.09323   -3.7346989    147030.97    1.1319376 
  136000    369.34507    81.645418    144538.13    1.1514601 
  137000    384.28637   -23.059954    147060.69    1.1317089 
  138000    388.39878    3.0374495    145921.06    1.1405475 
  139000    343.17411   -2.1461232    147026.79    1.1319698 
  140000    406.37532   -6.6818736     146610.6    1.1351832 
  141000     360.8269    17.414237    147548.85    1.1279647 
  142000    371.62141   -66.811156    150583.65    1.1052321 
  143000    369.75031   -155.47281    151887.35    1.0957456 
  144000    350.39019    70.612766    142266.88    1.1698428 
  145000    378.63631   -36.956051    145772.32    1.1417112 
  146000    365.77124   -2.9516996    142799.76    1.1654774 
  147000    375.09149   -3.0984887    142864.83    1.1649466 
  148000    365.34589  -0.80518878    144616.31    1.1508377 
  149000    371.63978  -0.47307321    143270.59    1.1616472 
  150000     361.3029   -8.7478332     145809.4    1.1414209 
  151000     378.1422    71.467429    146233.65    1.1381094 
  152000    369.04998    80.027131    145432.29    1.1443806 
  153000      376.505    11.385293    147100.09    1.1314058 
  154000    392.12247   -7.2262069    147876.83     1.125463 
  155000    356.09724   -3.2464411    148412.61    1.1213999 
  156000    398.85875    6.9929321    146847.41    1.1333526 
  157000    398.14044   -5.6623085    147743.21    1.1264808 
  158000    368.15611   -4.4636471    147077.39    1.1315804 
  159000    381.66021    6.4653878    148073.22    1.1239702 
  160000    388.04229   -6.0986255    148978.63    1.1171394 
  161000    364.39535    1.3677518     149097.8    1.1162465 
  162000    362.88444    -9.519851    150462.98    1.1061185 
  163000     381.5577   -11.240647     150953.5    1.1025242 
  164000    371.79461    28.428256    150874.21    1.1031036 
  165000    382.48483   -1.0206619    152059.57    1.0945046 
  166000    361.40147   -93.578158     154261.9    1.0788788 
  167000    362.23332   -29.893203    154034.13    1.0804741 
  168000    359.98409    92.727383    150773.09    1.1038435 
  169000    380.96433    30.470843    151973.55    1.0951241 
  170000     354.0902    13.224899    150959.57    1.1024799 
  171000    372.87249   -9.7565524    149581.02    1.1126405 
  172000    350.18295    7.0895044    148471.82    1.1209528 
  173000     396.4214   -4.6100358     147925.9    1.1250896 
  174000    368.97867    9.1646939    145344.97    1.1450681 
  175000    380.59716   -4.9577805    146115.35    1.1390308 
  176000    365.05172    72.414208    146159.44    1.1386872 
  177000    378.62512    7.1586272    146950.92    1.1325543 
  178000    376.76802   -9.2367367    148215.68    1.1228899 
  179000    402.86077   -7.6741821    149515.51    1.1131279 
  180000    355.22956   -15.515011     149014.9    1.1168674 
  181000    350.60302   -146.58953    151562.24     1.098096 
  182000     351.7973   -18.728242    147560.38    1.1278766 
  183000    409.41711   -1.4169224    149406.65     1.113939 
  184000    351.08092   -21.322245    151095.07    1.1014912 
  185000    370.97773     150.6168     148643.4    1.1196588 
  186000    362.00093  -0.34556387    150488.49     1.105931 
  187000    361.10988   -11.130484     152029.5    1.0947211 
  188000    364.80131   -83.216116    153435.37    1.0846905 
  189000    387.90582    -39.34273    149984.59    1.1096466 
  190000    360.54028    4.7690452     148849.6    1.1181078 
  191000    381.13633    14.307273    148533.05    1.1204907 
  192000    364.16712   -100.76466    149897.37    1.1102923 
  193000    366.23568    10.724709    149226.52    1.1152836 
  194000    370.06941    7.1138309    149241.15    1.1151743 
  195000     379.0516   -73.688858    152277.32    1.0929394 
  196000    367.03615   -12.099448    150519.03    1.1057066 
  197000    380.33107   -20.880649    150153.06    1.1084016 
  198000    414.32437   -17.943138    149260.67    1.1150285 
  199000    351.01472    10.053028    147456.65      1.12867 
  200000    387.29132   -45.484208    149467.45    1.1134858 
  201000      370.646    9.0536626    148077.87    1.1239349 
  202000    369.70477    -13.53251    148654.74    1.1195734 
  203000    384.85912    156.17928    145737.59    1.1419833 
  204000    363.48044   -12.707077    147460.55    1.1286401 
  205000    395.68482   -10.445657    147119.64    1.1312554 
  206000    356.01045   -27.130495    147988.79    1.1246115 
  207000    371.26243    34.821731    147431.08    1.1288657 
  208000    373.46185    11.048718    147842.72    1.1257226 
  209000    370.80835   -7.4395978    148802.36    1.1184627 
  210000    372.22609     21.17062    149137.32    1.1159507 
  211000    363.58359     176.3489    144145.03    1.1546003 
  212000    362.09924   -13.069632    146662.81    1.1347791 
  213000    383.75268   -1.1791859    146868.75    1.1331879 
  214000    375.35487   -5.1147451    145993.66    1.1399803 
  215000     383.6323   -20.666771    146102.66    1.1391298 
  216000    382.50841    125.21448    141601.83    1.1753371 
  217000    363.17566    18.518663    144186.94    1.1542647 
  218000    391.84281   -7.7173421    145049.65    1.1473995 
  219000    344.88218   -34.885911    146228.72    1.1381477 
  220000    389.02894    142.49357    143656.94    1.1585231 
  221000    372.89716    -7.005291    146426.11    1.1366135 
  222000    361.45007   -4.5899657    146491.05    1.1361096 
  223000    382.02631    33.714902    146742.02    1.1341665 
  224000    369.84772    32.195524    147741.08     1.126497 
  225000    349.57138   -7.5895202    150040.01    1.1092367 
  226000    371.85247  -0.49793521    150545.57    1.1055117 
  227000     359.7497    5.7388329    150136.02    1.1085274 
  228000    359.78691    16.123794    147400.89    1.1290969 
  229000    384.87549    11.436189    149702.07    1.1117408 
  230000    369.11506    9.9862109    147428.18    1.1288879 
  231000    373.87535   -9.7711388    147431.25    1.1288644 
  232000    369.53449   -46.047743    146688.14    1.1345832 
  233000    390.48636   -69.921958    149227.36    1.1152773 
  234000    359.33103    3.7878267    146305.38    1.1375514 
  235000    386.90114   -9.2993101    146041.65    1.1396057 
  236000    366.15616     3.756554    146764.12    1.1339958 
  237000    398.47624   -74.458512    149090.39     1.116302 
  238000    360.43097   -74.001146    149036.12    1.1167084 
  239000    387.45188     17.85007    145425.16    1.1444367 
  240000    350.76037   -8.1143271    144164.82    1.1544418 
  241000    381.61875   -7.8059137    146373.67    1.1370207 
  242000     406.8319    73.842168    142446.28    1.1683695 
  243000    342.46978   -97.300074    145583.82    1.1431895 
  244000    388.43967    16.687172     144806.5    1.1493261 
  245000    352.71011   -7.7418953    146485.23    1.1361548 
  246000    393.27497    16.189762    145914.75    1.1405968 
  247000    361.22378    78.277594    143291.48    1.1614779 
  248000     373.4257   -107.28071    146094.76    1.1391914 
  249000    384.60695   -3.8661988    146649.58    1.1348815 
  250000    372.78556    4.5906994    145720.62    1.1421163 
  251000    369.00457   -33.927285    148879.09    1.1178863 
  252000    362.54613   -74.077955     150754.2    1.1039818 
  253000    388.43195    10.842301    149435.63    1.1137229 
  254000    352.47544    9.2900695    148261.98    1.1225393 
  255000    378.20766     32.14677    146838.89    1.1334184 
  256000    386.68573    194.61599    141988.86    1.1721334 
  257000    368.47808    43.992464    144139.84    1.1546418 
  258000    365.08954   -18.075904    142996.52    1.1638737 
  259000    375.03945     2.285224    143388.29    1.1606938 
  260000    343.35319   -6.9105071    143743.45    1.1578259 
  261000    384.04122   -12.343851    143835.06    1.1570885 
  262000    360.83925    -104.6824    145132.47    1.1467447 
  263000    347.21769     73.87391    142283.85    1.1697033 
  264000    380.41209   -12.154711    143141.72    1.1626931 
  265000    355.79229    10.009499    141972.52    1.1722683 
  266000     389.4132    21.406612    141952.88    1.1724305 
  267000    368.77809    -133.1673    146846.72    1.1333579 
  268000    347.93659    67.690875    141680.28    1.1746864 
  269000    377.84627    13.016369    142130.29    1.1709671 
  270000    373.21091    11.688171    143013.11    1.1637387 
  271000    361.33134   -65.597454    145829.31     1.141265 
  272000    364.46374    70.491763    143146.87    1.1626513 
  273000    382.42394    11.720582    146420.97    1.1366534 
  274000    365.75306    5.7295837    147778.77    1.1262098 
  275000    382.49996    36.811553    146676.16    1.1346758 
  276000    370.64397    48.218239    146416.69    1.1366866 
  277000    408.50635   -8.9271382    146314.59    1.1374798 
  278000    349.14557    1.4967762    145236.62    1.1459224 
  279000    392.80466   -57.198641    147500.23    1.1283365 
  280000    386.96871    43.752287    144752.63    1.1497538 
  281000    366.62385   -13.834343    145097.84    1.1470184 
  282000    382.99993    8.9350856    144441.07    1.1522339 
  283000    364.11175   -6.7666989    145043.57    1.1474475 
  284000    360.38671    87.613447    142866.52    1.1649327 
  285000    383.22112     44.55055     143860.9    1.1568807 
  286000    336.09124    -6.215762    146205.76    1.1383265 
  287000    392.58285    9.7183363    147508.69    1.1282718 
  288000    357.64917    37.060279    144915.24    1.1484637 
  289000    385.48465    127.92276    142969.01    1.1640977 
  290000      370.688    21.566046    143441.14    1.1602661 
  291000    363.17872   -2.7080256    144804.28    1.1493437 
  292000    401.80524    14.011062     143638.2    1.1586743 
  293000    351.68294   -83.941286    145610.87    1.1429771 
  294000    380.19467   -81.176447    147463.92    1.1286143 
  295000    372.57432    8.5767201    145825.55    1.1412944 
  296000    354.52832    8.6786768    144334.08     1.153088 
  297000    343.85404    -13.65273    146025.88    1.1397287 
  298000    353.37254    43.454555     144358.1    1.1528961 
  299000    389.00528    -97.35383     148278.2    1.1224164 
  300000    357.17316    12.626272    146411.72    1.1367252 
  301000    375.35412   -10.049821    146808.94    1.1336496 
  302000     377.7655   -62.989786    148206.52    1.1229593 
  303000    356.50125    57.717882    146054.61    1.1395046 
  304000    400.94231   -8.3008124    144992.84     1.147849 
  305000    360.29845   -4.6589119    143526.94    1.1595725 
  306000    403.54379   -2.7429823    146216.21    1.1382451 
  307000     370.9387    105.90401    143445.95    1.1602272 
  308000    372.71719    17.306757    146020.68    1.1397693 
  309000    382.88061   -6.9613383    146800.56    1.1337143 
  310000    378.23115    19.409959    145461.73     1.144149 
  311000    350.56006    10.128587    146040.89    1.1396116 
  312000    390.71869    30.432341    146139.79    1.1388404 
  313000    370.09183    10.128367    145397.29    1.1446561 
  314000    389.96832    -27.26319     145416.5    1.1445048 
  315000    331.20061   -120.55888    147850.96    1.1256599 
  316000    399.01073    15.422498    146452.77    1.1364065 
  317000    374.32743    8.6564417    147019.32    1.1320273 
  318000    367.35743    15.338678    147822.41    1.1258773 
  319000    394.93212    -147.7475    150768.35    1.1038782 
  320000    356.50669   -19.129372    147523.73    1.1281567 
  321000     382.2075    6.7752149    147083.71    1.1315318 
  322000    364.58688   -11.802857    147597.72    1.1275912 
  323000    394.56492    141.84311    145899.37     1.140717 
  324000    378.32568    2.7386158    146999.88    1.1321771 
  325000    362.38443     -6.73177    148051.21    1.1241373 
  326000     389.1159   -4.0120973    148262.06    1.1225386 
  327000     353.4842    97.908939    145391.87    1.1446988 
  328000    362.45467   -7.9156269    149042.64    1.1166596 
  329000    377.19888   -3.4379083    150170.28    1.1082745 
  330000    364.10687   -2.2334978    149216.07    1.1153617 
  331000    365.08299    8.6064698    147797.73    1.1260653 
  332000    396.27796    8.4843053    145606.81     1.143009 
  333000     359.0363   -20.253359    146520.33    1.1358826 
  334000    378.48882    58.486528    144089.33    1.1550466 
  335000    386.83755   -6.3212352    146712.08     1.134398 
  336000    361.25883   -32.099093    146291.72    1.1376577 
  337000    378.37137   -77.362874    150137.72    1.1085149 
  338000    361.36388     6.449828    145534.39    1.1435778 
  339000    359.72829    44.585594    144000.94    1.1557556 
  340000    387.85846   -47.697083    144468.71    1.1520134 
  341000     352.7208    4.4016855    143597.03    1.1590065 
  342000    361.12132   -2.4347232    145078.43    1.1471719 
  343000    375.81022   -2.3425616    145956.11    1.1402735 
  344000    372.01924    15.525622    147747.71    1.1264465 
  345000    382.00534    -1.575052    146573.16    1.1354732 
  346000    365.00321    35.372122    144215.67    1.1540347 
  347000    367.86172    19.962445    145006.06    1.1477444 
  348000    394.98188    20.164365    145148.18    1.1466206 
  349000    378.64091   -36.501242    146799.03    1.1337261 
  350000    356.32351   -8.4855871    146294.76     1.137634 
  351000    386.99809    9.0784796    147304.01    1.1298395 
  352000    387.53398    10.504715    143256.74    1.1617596 
  353000    342.41408    27.273696    141748.38     1.174122 
  354000    380.27311     16.26158    143237.82    1.1619131 
  355000    356.07227    57.581916    143897.44    1.1565869 
  356000    376.40918    13.674812    145801.63    1.1414817 
  357000    343.87672    167.22879     144085.1    1.1550806 
  358000    391.51438   -8.5612168    147503.09    1.1283146 
  359000    359.91955    166.85723    144017.92    1.1556193 
  360000    363.35481   -3.4545456    146904.64     1.132911 
  361000    387.24342   -48.139525    148824.06    1.1182996 
  362000    354.25485   -20.174606    147135.62    1.1311325 
  363000     403.5818    6.7590711    146789.76    1.1337977 
  364000    375.90171    105.86774    146416.35    1.1366892 
  365000    370.40389    1.9310588    147539.35    1.1280373 
  366000    372.07758    25.384559    145756.84    1.1418325 
  367000     370.6108    25.935711    144520.69    1.1515991 
  368000    357.22678    11.727207    144944.25    1.1482338 
  369000    379.43473   -157.69262    149485.36    1.1133524 
  370000    356.74834   0.37320287    147396.96     1.129127 
  371000    385.68793    49.188155    146661.45    1.1347896 
  372000    339.50332   -11.590598    146046.67    1.1395665 
  373000    367.57999    12.797603     144596.3    1.1509969 
  374000     380.9349    44.346087    145029.89    1.1475558 
  375000    344.78736   -13.359923    141619.49    1.1751906 
  376000    398.26759   -80.473421    144807.81    1.1493157 
  377000    370.35444    11.911245    142938.72    1.1643443 
  378000    348.81127   -28.826868       143676    1.1583695 
  379000    370.19368    70.342268    142338.02    1.1692582 
  380000    394.81102   -8.3241684    144866.34    1.1488513 
  381000    359.54714    28.698909    145234.48    1.1459393 
  382000    381.56767   -7.8822331     146941.9    1.1326238 
  383000    363.18231    15.144223    146537.64    1.1357484 
  384000    379.80016    4.9680685    146531.03    1.1357997 
  385000    367.86465   -67.993147    147558.76    1.1278889 
  386000    374.36738   -9.8407792     147548.8    1.1279651 
  387000    354.78443   -8.2511271    146382.34    1.1369534 
  388000    367.46568    6.2035302    145888.06    1.1408055 
  389000    393.11572    18.033213    146398.76    1.1368258 
  390000    369.38005   -5.3832968    147262.64    1.1301569 
  391000    371.18406   -8.6603911    145510.47    1.1437657 
  392000    373.78294   -151.91458    150038.57    1.1092474 
  393000    388.95758    16.682285    146359.47     1.137131 
  394000    348.84997    9.9198579    148679.42    1.1193875 
  395000     372.2219    3.3325675    147075.61    1.1315941 
  396000    363.76883   -24.902046    146591.44    1.1353316 
  397000    360.53852    5.7616144    146529.62    1.1358106 
  398000    390.30092    31.621215    147043.87    1.1318383 
  399000    364.97447   -40.393782    147163.47    1.1309185 
  400000    393.66655    1.9713991    144916.86    1.1484508 
  401000    364.77855    -25.66888    144592.25    1.1510291 
  402000    391.51233    55.773731    143711.86    1.1580804 
  403000    368.07081    3.3414149    145405.97    1.1445877 
  404000    375.35029   -58.447818    146927.81    1.1327324 
  405000    372.55461     9.147858    145525.61    1.1436467 
  406000     369.9678   -7.3459318    147392.04    1.1291647 
  407000    371.78186     181.2802    144664.23    1.1504564 
  408000    381.50731    9.3110329    147092.71    1.1314625 
  409000    375.14494   -44.479246    149421.38    1.1138291 
  410000      363.735   -18.315144    145391.61    1.1447008 
  411000    388.43817    11.190509    144378.62    1.1527323 
  412000    360.52643   -98.633885    146980.59    1.1323256 
  413000    363.87082   -2.7320779    145390.42    1.1447102 
  414000    380.16627   0.15834842    145746.28    1.1419152 
  415000    379.55416    109.99334    143036.79     1.163546 
  416000    360.72848   -13.577648    147448.92    1.1287291 
  417000    387.79331     9.949686    147636.82    1.1272926 
  418000    369.95621   -145.88173    149871.15    1.1104866 
  419000    367.87493    10.920004    145709.76    1.1422014 
  420000    377.47177   -12.506138    144287.12    1.1534633 
  421000     387.9679    10.784518    145196.52    1.1462388 
  422000    354.92096    9.2167953    145771.17    1.1417202 
  423000    356.87935    4.1060157    146685.07    1.1346069 
  424000     383.4522     9.174967       147550    1.1279559 
  425000    374.98188     35.60598       145761    1.1417999 
  426000    390.02497   -26.131192    146685.75    1.1346017 
  427000    363.26321    5.7316663    146433.65     1.136555 
  428000    378.04191    133.90409    143830.76    1.1571231 
  429000    365.01058     11.46805    147164.87    1.1309078 
  430000    379.70034    19.486972    147777.24    1.1262214 
  431000     376.2148    77.416508    145678.92    1.1424432 
  432000    381.73582    10.748025    148856.82    1.1180535 
  433000    362.70752   -18.044494    148954.47    1.1173205 
  434000       367.07    36.839763    148111.05    1.1236832 
  435000    381.17603    10.241995    149747.46    1.1114038 
  436000     362.5298   -30.039396    148717.08    1.1191041 
  437000    372.31827    121.30722    144648.89    1.1505784 
  438000    396.29807    9.5735033    144714.34    1.1500581 
  439000     361.3361    5.4312774    143260.99    1.1617251 
  440000    370.70832    -91.25658    145874.14    1.1409143 
  441000     353.2089    15.249843    143765.74    1.1576464 
  442000     382.0018   -8.5299002    144459.04    1.1520905 
  443000    362.99245    11.564654    144345.74    1.1529948 
  444000    350.51559   -75.167759     145020.3    1.1476317 
  445000    382.67507     -63.2831    146143.06    1.1388149 
  446000    353.38323    -12.01562    145110.08    1.1469216 
  447000    370.21307   0.15739559    147595.97    1.1276046 
  448000    382.28307    23.211301    146684.41     1.134612 
  449000    358.75795   -158.03976    149174.14    1.1156752 
  450000    368.64896   -1.9760484    147678.78    1.1269723 
  451000     377.7566   -6.8435761    148050.52    1.1241426 
  452000    354.33255   -7.8843426    146794.35    1.1337622 
  453000    385.58124    -12.72988    147588.63    1.1276607 
  454000    369.64019   -5.9329895    148413.24    1.1213951 
  455000    391.17287   -10.859187    146505.93    1.1359942 
  456000    342.32897   -126.83639    148642.76    1.1196637 
  457000    382.00493    13.723043    146002.65    1.1399101 
  458000    362.83825    2.5937954    145867.63    1.1409652 
  459000    374.95999   -68.998735    149079.98    1.1163799 
  460000    370.51538   -5.9332299    148709.79     1.119159 
  461000    371.47618   -24.606662     150040.5    1.1092331 
  462000    379.39958   -14.720127    149794.35    1.1110559 
  463000    376.89692    17.630556    148754.45     1.118823 
  464000    397.18131   -10.723511    147177.03    1.1308143 
  465000    375.59449   -19.864689     149507.6    1.1131869 
  466000    368.52261    41.672556     148129.2    1.1235455 
  467000    375.27882   -14.690146    147125.32    1.1312117 
  468000    392.17373   -27.365696     145497.6    1.1438669 
  469000    366.49212   -7.5263547    144120.96    1.1547931 
  470000    356.57174    106.92861    143831.14    1.1571201 
  471000    381.00016    12.083407    144913.56     1.148477 
  472000    345.15249   -5.4482505    144533.27    1.1514988 
  473000    402.42113   -31.170433    146503.38     1.136014 
  474000    351.60105   -7.5318454    145286.88     1.145526 
  475000    392.40152   -87.918124    149521.81     1.113081 
  476000    362.73353   -13.563326     147857.2    1.1256123 
  477000    379.44142   -8.9015596     148985.6    1.1170871 
  478000    342.30367   -135.92313     149102.6    1.1162105 
  479000    395.75493     6.630005    144546.49    1.1513935 
  480000     354.1226   -15.732541    146103.96    1.1391197 
  481000    384.51622   -112.92703    148405.26    1.1214555 
  482000    368.15993    12.481871    145896.44    1.1407399 
  483000    379.64411    4.1812711     146079.2    1.1393127 
  484000    367.51015    -74.17469    146715.72    1.1343699 
  485000    376.15475    11.296466    144244.37    1.1538051 
  486000    369.60209   -50.488411     146198.3    1.1383846 
  487000    354.84703    29.773726    145164.73    1.1464898 
  488000    387.04347   -15.017619    145989.47     1.140013 
  489000    345.82046   -86.333563    146377.96    1.1369874 
  490000    383.76817    -10.65459    146580.73    1.1354145 
  491000    361.84181    142.36847    144808.95    1.1493067 
  492000    381.55757    1.7189795     147722.3    1.1266403 
  493000    366.31177   -36.513927    148372.98    1.1216994 
  494000    338.46096    19.402661    149078.41    1.1163917 
  495000    381.45152   -17.605763    150241.43    1.1077497 
  496000    391.65874    10.129279    147620.05    1.1274207 
  497000    362.77757    14.660917    146773.51    1.1339232 
  498000    385.41891    28.274045    147682.62     1.126943 
  499000     374.2822    40.887171    146445.42    1.1364636 
  500000    369.33723   -15.814433    148171.82    1.1232223 
  501000    378.94132    130.87391    143328.95    1.1611743 
  502000    383.21328    17.255595    146043.19    1.1395937 
  503000    365.01797   -29.271595    145707.48    1.1422193 
  504000    390.06594   -87.566906     148999.4    1.1169837 
  505000    356.96169   -4.6705112    147272.44    1.1300817 
  506000    398.47237   -44.228881    148732.78     1.118986 
  507000    365.34061   -7.9507786    146732.92    1.1342369 
  508000    376.79319    5.5049348    145628.32    1.1428402 
  509000    369.19065   -35.735254    147695.07     1.126848 
  510000    378.44162    58.577271    145524.75    1.1436535 
  511000    370.71244   -9.3036692    146447.47    1.1364477 
  512000    367.22209   -14.657633    146780.57    1.1338687 
  513000    408.01297   -26.105568    147609.19    1.1275036 
  514000    366.08551   -6.7752572    147832.11    1.1258034 
  515000    384.11428    174.62076    145594.65    1.1431044 
  516000    358.96011    14.550584    151350.35    1.0996334 
  517000    391.16926    47.886831    149332.17    1.1144946 
  518000    366.33642   -22.550571    152164.21    1.0937519 
  519000    380.18177   -11.053054     150336.7    1.1070476 
  520000    375.36999   -60.674702    151288.33    1.1000842 
  521000    372.56929    15.657717    148932.43    1.1174859 
  522000    359.17807    27.495051    147813.55    1.1259447 
  523000    390.88606    1.0616813    148773.65    1.1186786 
  524000    372.74421   -16.717713    146584.22    1.1353875 
  525000    377.17324    121.36597    144073.26    1.1551754 
  526000    366.73751  -0.42584054    147125.65    1.1312092 
  527000    358.37911    80.440814    144842.51    1.1490404 
  528000    392.81865    -10.24234    145886.92    1.1408144 
  529000    353.61656   -21.143542    146328.47    1.1373719 
  530000    342.57097    41.542329    144655.96    1.1505222 
  531000    406.54083    12.927064    145158.86    1.1465362 
  532000    357.93375     61.40513    142954.31    1.1642174 
  533000    386.68874   -7.1440549    145507.63    1.1437881 
  534000    363.29953   -53.188358    145613.03    1.1429601 
  535000    383.38906   -20.309773    145736.48     1.141992 
  536000     362.8722   -23.002296    144564.56    1.1512496 
  537000    376.40485     59.06712     142188.4    1.1704886 
  538000    389.11328    16.198854    142764.98    1.1657613 
  539000    370.05701    30.850817    144321.74    1.1531866 
  540000    417.78348    14.674911    146618.31    1.1351235 
  541000    374.62275    14.298862    146097.81    1.1391676 
  542000    351.52934    5.3534268    144043.16    1.1554168 
  543000    359.16036   -1.5739746    143542.33    1.1594481 
  544000    387.63212    63.188706    144980.34     1.147948 
  545000    372.37287    41.246612    147610.18     1.127496 
  546000    357.37794   -4.4658644    149408.87    1.1139224 
  547000    381.71436   -56.471383    147970.21    1.1247527 
  548000    369.76254   -40.661835    150056.13    1.1091176 
  549000    347.40039   -13.361849    147586.32    1.1276783 
  550000     359.8411    91.531121    144125.71    1.1547551 
  551000    394.32452    37.342372    146694.32    1.1345354 
  552000    363.28651    2.1367858    145538.09    1.1435487 
  553000    366.73522   -132.38241    147372.65    1.1293133 
  554000    363.73084   -2.6937402    146605.58     1.135222 
  555000    369.94138   -34.902447    147848.67    1.1256773 
  556000    362.06558    -11.20711    148599.08    1.1199927 
  557000    379.19303     12.79021    147199.78    1.1306395 
  558000    366.89112   -46.855835     148259.2    1.1225603 
  559000    384.43454   -5.7177158    148146.09    1.1234174 
  560000    366.68103   -85.044227    147373.77    1.1293047 
  561000     369.6553    12.739859    143951.49    1.1561526 
  562000    394.04377    126.94786    142834.42    1.1651945 
  563000    375.55568   -8.9964678    151173.13    1.1009225 
  564000    374.01707   -7.3781988    152095.74    1.0942443 
  565000    378.96456    69.155545    149323.28    1.1145609 
  566000    358.24107   -16.669218    152450.14    1.0917005 
  567000     384.3745    22.097451    148688.26     1.119321 
  568000    363.97439    -45.40465    149655.26    1.1120885 
  569000    376.87456   -9.0084941    149285.26    1.1148447 
  570000    368.37974     31.62759    147320.57    1.1297125 
  571000     385.6193    91.117804    146144.56    1.1388032 
  572000    374.06336    14.443749    150422.79    1.1064141 
  573000    378.36043    28.998779    149338.09    1.1144504 
  574000    347.36767   -17.031905    149407.92    1.1139295 
  575000     395.3655    10.301699    148281.73    1.1223898 
  576000    379.38619   -10.281788    148558.81    1.1202964 
  577000    362.53374   -10.140888    147964.61    1.1247952 
  578000    362.48935    123.07121    144494.05    1.1518114 
  579000    361.13122   -9.2389363    146157.57    1.1387018 
  580000     380.3788   -98.695694    148228.91    1.1227897 
  581000    386.93278    5.7551339    145154.37    1.1465717 
  582000    362.11847    23.630511    143770.17    1.1576107 
  583000    347.16039   -62.444227    147032.85    1.1319232 
  584000    385.89913   -1.6392202    146679.36     1.134651 
  585000    353.48714   -63.906851    147127.18    1.1311975 
  586000    411.40019   -6.6262661    146440.33    1.1365031 
  587000    368.97812    14.881708    145051.54    1.1473845 
  588000    347.59476   -93.980789    146207.47    1.1383132 
  589000    392.85308    26.815273    144231.16    1.1539108 
  590000    370.76398     4.050861    147473.97    1.1285374 
  591000    408.44666    57.812109    145472.41     1.144065 
  592000    371.68269   -58.154067    148996.56    1.1170049 
  593000    375.24435    5.6015431    146581.01    1.1354124 
  594000    380.37518    18.988494    146331.26    1.1373502 
  595000    372.26852    -8.807762    145324.45    1.1452298 
  596000    372.17171   -79.771694    146290.49    1.1376672 
  597000    385.10443   -21.095848    146179.59    1.1385303 
  598000    358.22136    3.5774982    147823.72    1.1258673 
  599000    392.94758   -34.687012    146024.78    1.1397373 
  600000    346.43854   -139.83474    148169.52    1.1232397 
  601000    391.00597   -3.7341679    144617.02     1.150832 
  602000    370.38063    13.196733    145373.29     1.144845 
  603000    383.13608    35.246204    145516.45    1.1437187 
  604000    376.58942    161.82545    142121.59    1.1710388 
  605000    391.04172   -2.8625784    145812.07    1.1413999 
  606000     368.0282    -22.92055    147662.99    1.1270928 
  607000     376.2406    75.202979    144962.51    1.1480892 
  608000    397.96025    23.445283    149666.92    1.1120018 
  609000    357.55112    6.5846973    151438.29    1.0989948 
  610000    387.38223   -86.852807    151583.18    1.0979443 
  611000    352.13182    5.7510619    150411.59    1.1064965 
  612000    375.22078   -15.235799    149393.57    1.1140365 
  613000    372.58595   -1.2937908    147066.81    1.1316618 
  614000    386.43318    82.989609    144481.86    1.1519085 
  615000    336.79381   -20.263749    148883.55    1.1178528 
  616000    389.60022   -13.159103    149419.21    1.1138453 
  617000    356.06759    20.710206    147811.04    1.1259639 
  618000    402.87925   -5.1033079    150875.41    1.1030949 
  619000    363.58224     9.876833    151201.42    1.1007164 
  620000    360.94696    67.954103    147411.36    1.1290168 
  621000    382.16434   -78.098215    148786.69    1.1185805 
  622000      361.822   -14.296384    146072.02    1.1393687 
  623000    373.76019   -20.528686    145869.72    1.1409489 
  624000    373.22438   0.99136432    146408.43    1.1367508 
  625000    366.68378   -11.433124    147713.15      1.12671 
  626000    376.70261    18.981249    147205.41    1.1305963 
  627000    346.29574   -12.888436    148617.44    1.1198544 
  628000    395.85063   -48.273932    150287.98    1.1074065 
  629000    372.68726   -117.67722    149845.56    1.1106761 
  630000     374.9985   -1.9253354    145397.47    1.1446546 
  631000    374.51431    3.6572466    145811.75    1.1414025 
  632000    399.85868    25.203698    148235.05    1.1227432 
  633000    365.63453    125.32502    145497.65    1.1438665 
  634000    393.28897    52.501738    145517.68    1.1437091 
  635000    360.16366    23.402399    145808.26    1.1414298 
  636000    371.49478   -11.266162    144180.73    1.1543144 
  637000    334.38877   -5.5431865    143620.35    1.1588183 
  638000    375.37584    101.13641    145135.63    1.1467197 
  639000    358.17373   -75.668624    148245.43    1.1226646 
  640000    373.36428    9.7037337    145446.94    1.1442653 
  641000    355.18262    8.7868433    146999.48    1.1321802 
  642000    360.33569    18.675956    147673.52    1.1270124 
  643000    380.14174    10.641803    148982.38    1.1171112 
  644000    373.16736   -40.485656    148391.03     1.121563 
  645000    349.88995   -16.621232    147287.27     1.129968 
  646000    395.41001    9.2274028    147600.72    1.1275683 
  647000    386.83936    80.000851    146736.59    1.1342085 
  648000    368.39328   -101.84657    151562.61    1.0980934 
  649000    371.58618   -1.7871488    146671.26    1.1347137 
  650000    354.81757    10.981105    146926.67    1.1327412 
  651000    392.68819     116.4396    144396.38    1.1525904 
  652000    365.87576   -9.8120973    147225.43    1.1304426 
  653000    386.51681  -0.35964357    148340.63    1.1219441 
  654000    359.34607    32.968282    147887.81    1.1253794 
  655000    384.64879    135.51694    144698.68    1.1501825 
  656000    356.50478   -13.092089    147957.72    1.1248476 
  657000    383.57894   -1.7169488    147029.04    1.1319525 
  658000    362.69736    165.58247    143555.94    1.1593383 
  659000    383.65919    18.088593    147522.17    1.1281687 
  660000    351.06013     32.74013    146013.41    1.1398261 
  661000     365.8451   -88.623294    149310.21    1.1146585 
  662000    354.60354    15.833109    145312.11     1.145327 
  663000    398.51968     -9.60113    145652.06    1.1426539 
  664000    371.64551   -22.859554    145034.13    1.1475222 
  665000    376.15365    -14.02923    147866.56    1.1255411 
  666000    357.69536    -30.00789    148938.17    1.1174428 
  667000    377.73027    16.987261    146804.01    1.1336876 
  668000    349.83896   -5.3735376     145388.2    1.1447276 
  669000    392.88268   -22.560602    146047.48    1.1395602 
  670000     356.0752   -105.45454    149041.49    1.1166682 
  671000     378.6734    33.976533    146100.74    1.1391448 
  672000    373.79083    15.481313    148200.68    1.1230036 
  673000    387.15173    -20.70899     149039.4    1.1166838 
  674000    366.33886    22.348328    147421.85    1.1289364 
  675000    374.56276   -57.606973    146043.57    1.1395907 
  676000    385.26539    7.3433687    145463.95    1.1441315 
  677000    362.67641   -16.400618    147833.12    1.1257957 
  678000    364.28223    5.9867504    147158.52    1.1309565 
  679000     371.3424    76.896687    146778.48    1.1338848 
  680000    382.49511    27.079713    146670.42    1.1347202 
  681000    368.31812    6.9817791    147082.75    1.1315392 
  682000    376.88351    6.3863755    144842.99    1.1490366 
  683000    388.49087    49.113933     143642.3    1.1586412 
  684000     386.0058   -35.330544    146198.33    1.1383844 
  685000    345.48578   -1.3369124    145214.68    1.1460955 
  686000     373.1001   -1.2771867     145764.3     1.141774 
  687000    365.75528   -19.620701    146976.09    1.1323603 
  688000    385.05218    -61.17868     149138.8    1.1159396 
  689000    364.50627    12.631337    146468.92    1.1362813 
  690000    386.56691    31.121732    146464.26    1.1363174 
  691000    371.49633    54.107367    146345.21    1.1372418 
  692000    347.11064    6.1150583    146830.95    1.1334797 
  693000    404.50946   -81.334366    147815.01    1.1259337 
  694000    376.23739    -9.942499    146678.28    1.1346594 
  695000      393.564   -17.345094    144599.09    1.1509747 
  696000    348.89793   -78.139901    143512.35    1.1596903 
  697000    378.64977    3.8444737    143145.66    1.1626611 
  698000    399.52872     -32.1297    146459.83    1.1363518 
  699000    380.61669    5.6061925    146509.25    1.1359685 
  700000    357.29097   -52.749454    147985.55    1.1246361 
  701000    383.12983   -9.1631944    148739.44    1.1189359 
  702000    383.78365    31.959121    147647.72    1.1272094 
  703000    348.49083    23.293346    147739.52    1.1265089 
  704000    389.88899   -12.838148    148380.12    1.1216455 
  705000    373.55615   -31.450417    149171.48    1.1156951 
  706000    370.08908     21.68874    147117.87    1.1312691 
  707000    354.12555   -51.233424    147941.84    1.1249684 
  708000    378.00011    6.8034673    148382.79    1.1216253 
  709000    358.65632   -98.412041    151137.89    1.1011792 
  710000    383.13749   -6.7211465    147692.69    1.1268661 
  711000    380.85503     13.83563    146088.12    1.1392431 
  712000    368.81302   -19.763757    149326.41    1.1145376 
  713000    405.13688   -12.612451    150872.01    1.1031197 
  714000    353.30844   -86.699847    150885.84    1.1030186 
  715000     360.6245    13.735973    147136.05    1.1311293 
  716000    374.85745    23.309444    146913.79    1.1328405 
  717000    395.02666    27.532324    147955.11    1.1248675 
  718000    372.39024    1.6726845    149142.49     1.115912 
  719000    367.64198    30.241718    149309.83    1.1146613 
  720000    350.94374   -12.520009    149436.17     1.113719 
  721000    358.54182    30.396484    146147.36    1.1387814 
  722000    384.91898   -115.29045    147582.35    1.1277087 
  723000    343.91719  -0.72635081    145052.24     1.147379 
  724000    359.64608    11.272848    147536.77     1.128057 
  725000     374.6629    39.154098    147032.23     1.131928 
  726000     361.9031   -13.661057    145669.41    1.1425178 
  727000    401.64773   -13.501764    145271.58    1.1456466 
  728000    364.47921    12.791163    145880.62    1.1408636 
  729000    387.14531    28.827885    147411.95    1.1290122 
  730000    376.54937    35.009649    148545.75    1.1203949 
  731000    353.17784    12.369963       149251    1.1151007 
  732000    380.56718    -63.08067    148705.52     1.119191 
  733000     376.5162   -78.731325    146418.94    1.1366691 
  734000    367.77263    9.1395339    144161.96    1.1544646 
  735000    395.92636   -6.6570274    145407.04    1.1445793 
  736000    349.53922    22.238748    144593.35    1.1510204 
  737000    380.55704   -38.846047    146443.62    1.1364776 
  738000    358.09626   -13.193567    145948.54    1.1403327 
  739000    376.26365    13.669195    144837.16    1.1490828 
  740000    376.54984    31.253408    143961.53     1.156072 
  741000    358.18824    165.80555     141859.2    1.1732048 
  742000    350.25928   -33.468369    146399.07    1.1368234 
  743000    393.88648   -11.594667    146849.23    1.1333385 
  744000    364.21585   -11.915631    147489.32      1.12842 
  745000    374.38003    1.9767506    148073.26    1.1239699 
  746000    343.72521    134.54899    145463.15    1.1441378 
  747000      391.401   -70.673121     149833.2    1.1107678 
  748000    376.47505    21.029293    147078.05    1.1315753 
  749000    356.41074    5.2063094    147790.88    1.1261174 
  750000    366.47315    34.820324    146997.97    1.1321918 
  751000    360.19711   -141.97079    150169.43    1.1082807 
  752000    402.26428    17.854328    149000.84    1.1169728 
  753000    350.08044   -15.993102    149540.03    1.1129454 
  754000    391.22741   -8.7413291    149488.73    1.1133273 
  755000    354.22754   -35.278701    147244.38    1.1302971 
  756000    357.24599    130.88368    143452.34    1.1601755 
  757000    373.98005    99.827218    145069.07    1.1472459 
  758000    380.74227   -10.417885    147015.29    1.1320584 
  759000    362.58804     27.17618    148067.12    1.1240165 
  760000    360.11465   -2.5014848    146319.12    1.1374446 
  761000     377.9059   -4.3687495    145086.16    1.1471108 
  762000     369.0194   -2.9311487    145432.36    1.1443801 
  763000    359.00891    23.687281    142820.46    1.1653085 
  764000    374.64828    23.931161    142688.46    1.1663865 
  765000    379.09471   -24.936513     144601.7    1.1509539 
  766000    395.30779   -34.779587    145921.92    1.1405407 
  767000    353.61922    14.925884    145651.38    1.1426592 
  768000      367.174   -68.369448    146130.33    1.1389141 
  769000    368.51113   -54.138547    146559.56    1.1355785 
  770000      395.032    140.88837    142453.75    1.1683083 
  771000    361.18814    108.21477    142594.68    1.1671536 
  772000    331.04869   -82.279589    148729.06    1.1190139 
  773000    376.68338   -48.693556     147770.6     1.126272 
  774000    364.41439     18.93184     145720.8    1.1421149 
  775000    359.12389   -117.14104    148751.34    1.1188463 
  776000     402.2133    132.42344    146204.21    1.1383386 
  777000    367.39641   -102.08182    152093.27     1.094262 
  778000    341.84076   -45.935033    149339.43    1.1144404 
  779000    378.59955    -43.69506    149845.14    1.1106793 
  780000     363.7153   -26.893357    147430.47    1.1288704 
  781000    353.38031    5.9152421    147118.63    1.1312632 
  782000    379.62815   -12.117469    146615.18    1.1351478 
  783000    370.33824    19.042999    145436.59    1.1443468 
  784000    364.04394   -25.721332    146479.52    1.1361991 
  785000    385.23788   -17.947421    147880.35    1.1254362 
  786000    373.75455   -32.881294     148624.2    1.1198035 
  787000     375.7188   -50.545035    148105.73    1.1237235 
  788000    379.95954    61.954341    145430.88    1.1443917 
  789000    368.66063    -44.62808    149126.85     1.116029 
  790000    379.38775   -64.172137    149073.71    1.1164268 
  791000    347.64949    29.117135    146811.58    1.1336292 
  792000    395.06363    25.898757    148458.91    1.1210502 
  793000    376.07967    20.144538    147958.24    1.1248437 
  794000    374.03691   -1.8606219    147905.41    1.1252455 
  795000    376.73315   -21.533976    148107.26    1.1237119 
  796000    406.48924   -22.266318    148185.62    1.1231177 
  797000    369.80128    47.223908     146184.7    1.1384905 
  798000    370.78831    95.490293     145936.8    1.1404244 
  799000    402.85784    57.038161    144275.33    1.1535575 
  800000    381.33243   -86.724631    149543.61    1.1129188 
  801000    364.52493   -75.293643    147961.25    1.1248208 
  802000    373.84618   -41.982295    147844.12     1.125712 
  803000    377.91012    40.955792    145129.66    1.1467669 
  804000     362.4589    29.501659    144781.42    1.1495252 
  805000    363.66859   -4.8734259    147028.73    1.1319549 
  806000    387.75735   -16.480066    148149.79    1.1233893 
  807000    360.89447   -14.938546    149508.85    1.1131775 
  808000    372.77459    10.683939    146527.63     1.135826 
  809000    344.64865   -21.071121     144425.2    1.1523604 
  810000    377.74959    14.727295    143514.84    1.1596702 
  811000    376.12403    8.6815572    142582.69    1.1672517 
  812000    344.17898   0.80504711    143562.47    1.1592855 
  813000    376.73731    17.124687    146317.69    1.1374557 
  814000    386.35743    13.688816     148041.6    1.1242103 
  815000    364.12748   -18.194394    147153.02    1.1309988 
  816000    339.56016   -18.165416    145407.85    1.1445729 
  817000    346.34759   -23.395878    145060.63    1.1473126 
  818000    403.69096   -11.582751    145940.46    1.1403958 
  819000    370.53683   -13.239033    145894.13     1.140758 
  820000    378.64989   -11.575406    144581.61    1.1511139 
  821000    359.56064    6.0826133    145439.36     1.144325 
  822000    379.00232    26.098372     145293.7    1.1454722 
  823000     367.3468     78.86784    143795.36    1.1574079 
  824000    377.54702    16.978669     144076.8     1.155147 
  825000    341.42287   -18.882054    145217.34    1.1460745 
  826000     413.6672   -110.47005     146175.5    1.1385621 
  827000    360.18183     -35.0726    143614.49    1.1588656 
  828000    383.74774   -14.507984    144507.81    1.1517017 
  829000    349.27603   -43.260992    146145.49    1.1387959 
  830000    382.32561    19.828134    146761.27    1.1340178 
  831000    358.88987    48.344915    144058.81    1.1552913 
  832000    384.05172    36.286142    146170.43    1.1386016 
  833000    365.74464   -58.280849    146824.45    1.1335298 
  834000    374.92485   -77.689184     148845.6    1.1181378 
  835000    367.06003    96.883723    147370.72    1.1293281 
  836000    362.30087    63.288735    146844.24     1.133377 
  837000    386.43113    27.979777    146763.29    1.1340022 
  838000    408.01432    120.35093    145139.98    1.1466854 
  839000     357.2883   -99.308478    150337.72    1.1070401 
  840000    401.37184    108.66599    145780.16    1.1416498 
  841000    370.66584   0.24843151    147259.97    1.1301774 
  842000    347.77595   -53.725218    150675.45    1.1045588 
  843000      383.555    94.848571    146411.92    1.1367236 
  844000    390.83632    98.656163     147266.4    1.1301281 
  845000    347.55642   -96.812599    151357.75    1.0995796 
  846000    383.35377    -99.53473    151724.92    1.0969186 
  847000    392.58057    137.60602    144130.37    1.1547177 
  848000    363.02709    139.34357    144049.38    1.1553669 
  849000    373.19931   -2.0186764    145611.28    1.1429739 
  850000    375.84866    150.90509    143276.88    1.1615963 
  851000    353.51647   -108.21994    151295.76    1.1000301 
  852000      381.734    48.893362    145957.99    1.1402588 
  853000    383.82073    46.182931    146455.23    1.1363875 
  854000    350.11704   -41.917936    150699.59    1.1043818 
  855000    383.98181   -6.2705292    150319.93    1.1071712 
  856000     350.4176    -2.181599    148930.41     1.117501 
  857000       374.39   -21.545457    148025.82    1.1243301 
  858000    348.43795   -30.756749    148728.81    1.1190158 
  859000    378.06605    52.660269    147566.24    1.1278317 
  860000    374.83019     125.1678    146261.45    1.1378931 
  861000    376.73105    96.695001     148620.6    1.1198305 
  862000    366.75833    -12.80406    151547.91    1.0981999 
  863000    387.28649    27.231145    151019.91    1.1020394 
  864000    368.83515    12.941915    150772.48     1.103848 
  865000    382.61805    13.212144    148752.97    1.1188341 
  866000     345.8419      17.8524    147145.62    1.1310557 
  867000    385.82215    33.416705    148209.46    1.1229371 
  868000    373.20344    15.902577    149695.72    1.1117879 
  869000    373.36131   -64.899694    148512.16    1.1206483 
  870000    351.16344   -29.005374    148636.36    1.1197118 
  871000    389.98263    24.013667    146066.43    1.1394123 
  872000    338.89453    17.796421    145403.45    1.1446076 
  873000    382.59216     26.31792    145473.82    1.1440539 
  874000    336.40803   -33.223136    147820.47    1.1258921 
  875000    396.47305   -34.625152    149921.51    1.1101135 
  876000    346.39191   -16.586495    150542.76    1.1055323 
  877000    395.58486    101.22237    148785.21    1.1185916 
  878000    346.35592   -44.587833    153509.49    1.0841668 
  879000    380.45981    35.430438    149892.32    1.1103297 
  880000    370.36632    24.191914    148973.92    1.1171747 
  881000    386.42796   -22.691465    148262.02    1.1225389 
  882000    372.98352    21.021727    144276.38    1.1535491 
  883000    379.66455   -30.485726    145442.58    1.1442997 
  884000    377.40014     69.52559    146264.93     1.137866 
  885000    402.60493    2.3307926    149308.18    1.1146736 
  886000    372.64609     37.81256    146833.72    1.1334582 
  887000    392.81059    25.669622    146477.58    1.1362141 
  888000    362.01598   -4.3300819    146870.76    1.1331724 
  889000    382.46972    71.187298    146364.63    1.1370909 
  890000    375.69961   -25.687017    147878.59    1.1254495 
  891000    397.85072    29.695714    144864.03    1.1488696 
  892000    355.58078   -9.2296292     145103.5    1.1469737 
  893000    396.48835    145.58449    140390.66    1.1854769 
  894000    335.22678     58.28086    141585.97    1.1754688 
  895000    376.61373    15.313914    143753.32    1.1577464 
  896000    378.40283   -57.443507    144324.67    1.1531631 
  897000    378.49705      126.339    139556.88    1.1925595 
  898000    387.00718    21.835155    143480.96    1.1599441 
  899000    405.82196    34.151769    142677.97    1.1664722 
  900000    368.47906   -92.919387    146496.75    1.1360654 
  901000    380.31685   -56.654232    146039.52    1.1396223 
  902000    352.61593   -21.844137    147492.33    1.1283969 
  903000     376.9181   -48.046126    147417.52    1.1289695 
  904000     345.9433   -119.21114    150412.68    1.1064884 
  905000    391.99498    4.4614565    148259.45    1.1225584 
  906000    355.36044    32.646372    148426.01    1.1212987 
  907000    368.16171     125.1963    146487.64     1.136136 
  908000    357.68936   0.30764116    146460.64    1.1363455 
  909000    390.22351   -36.117349    145441.85    1.1443054 
  910000    374.20479   -71.304213    146318.97    1.1374457 
  911000    385.94123     1.311059    145001.16    1.1477831 
  912000    379.45305    8.0493776    145996.83    1.1399555 
  913000    376.65255   -29.623996    146763.43    1.1340011 
  914000    359.86519   -52.913848    144194.96    1.1542005 
  915000     375.8012   -6.9464796    142822.75    1.1652897 
  916000    390.39853   -95.726361    146997.17    1.1321979 
  917000    365.16275    31.021207    144857.06    1.1489249 
  918000    391.87802    79.918702    143636.93    1.1586845 
  919000    357.40952   -45.761753    145036.77    1.1475014 
  920000    371.53048    -24.21803    144615.69    1.1508425 
  921000    381.81631    127.84371     144552.6    1.1513449 
  922000    357.06481   -29.238762    148818.39    1.1183422 
  923000    374.98271   -23.177996    149345.31    1.1143965 
  924000    373.23683    29.205782    148477.99    1.1209061 
  925000    411.17324   -9.9250249    149114.48    1.1161216 
  926000    359.94379   -69.477952    149760.78    1.1113049 
  927000    365.35796    60.971532    147759.76    1.1263547 
  928000    385.55113    30.547493    146977.52    1.1323493 
  929000     362.2822    115.07788    143934.22    1.1562913 
  930000    380.91247    22.460463       144939    1.1482754 
  931000    354.05039   -34.891932    145502.96    1.1438248 
  932000    373.67649    -98.51167    146634.14     1.135001 
  933000    357.83841   -33.676074       146019    1.1397824 
  934000    393.10028   -19.377388    146021.89    1.1397599 
  935000    381.96351   -83.456219    146254.29    1.1379488 
  936000    345.90545    10.391119    145299.84    1.1454238 
  937000    378.36464    5.6592258    146397.84     1.136833 
  938000    390.12009    107.30892    144320.53    1.1531962 
  939000    394.47977    32.421891    146200.78    1.1383652 
  940000    351.18467   -47.290482    149907.51    1.1102172 
  941000    387.31814    53.291725    148029.04    1.1243057 
  942000    377.68729   -21.264734    148317.39    1.1221198 
  943000    354.50442   -35.420952     148328.4    1.1220366 
  944000    393.81543    -65.11537    147227.99    1.1304229 
  945000    354.30134    54.120133    145481.21    1.1439958 
  946000    372.95687   -17.308152    148124.99    1.1235774 
  947000     386.0115   -21.396066    146440.03    1.1365054 
  948000    359.47199   -41.241027    147409.07    1.1290343 
  949000    386.55755   -79.295285    144907.28    1.1485268 
  950000    379.67828    4.5436191    144134.27    1.1546865 
  951000     364.7878   -18.072112     145236.8    1.1459209 
  952000    374.18059    31.945136    143714.76    1.1580571 
  953000    385.64247   -23.564269    145308.51    1.1453554 
  954000    370.21234    148.80035    142422.78    1.1685623 
  955000    385.93544   -4.8839593    144316.55     1.153228 
  956000    362.30865    19.647012    143482.25    1.1599337 
  957000     374.9075    8.3580495    143916.13    1.1564367 
  958000    352.15474   -74.535069     144645.2    1.1506077 
  959000    372.71908   -48.372891    146862.78     1.133234 
  960000     379.8316     37.39367    144475.24    1.1519613 
  961000    370.78627    22.233944    144798.33     1.149391 
  962000    379.37986   -11.430725    146264.73    1.1378675 
  963000    364.88521     33.77679     146004.1    1.1398988 
  964000    357.68921   -87.380766    148955.24    1.1173148 
  965000    404.49899   -4.2624481    147220.15    1.1304831 
  966000    366.68849   -19.782585    146689.35    1.1345738 
  967000    374.30136   -45.898935    147301.37    1.1298598 
  968000    372.26925   -122.05333    148589.94    1.1200616 
  969000    381.16868   -38.867013    146843.98    1.1333791 
  970000    348.49525   -21.658945    146177.48    1.1385467 
  971000     375.8263   -48.603243    148411.33    1.1214096 
  972000    375.72593    60.649213     145115.1    1.1468819 
  973000    372.15891   -12.247047    147047.43    1.1318109 
  974000    362.73697   -12.217098    146113.31    1.1390468 
  975000    376.25771   -118.17564    148701.62    1.1192205 
  976000    402.68045   -28.135314    148590.23    1.1200594 
  977000    392.80561   -30.298997    147281.18    1.1300146 
  978000    363.68943   -109.65059    148893.93    1.1177749 
  979000    346.80487    58.927422    143971.61     1.155991 
  980000     368.0855   0.51461799     144762.8    1.1496731 
  981000    382.68299    65.824741    142975.39    1.1640458 
  982000    374.70296    73.500377    141237.41    1.1783698 
  983000    368.58426   -17.204901    144951.33    1.1481778 
  984000    379.01725   -82.939699    146590.53    1.1353386 
  985000    357.11308   -59.824918    146639.31     1.134961 
  986000    363.55737    6.3327228    145111.75    1.1469084 
  987000    346.73603   -76.938604     145568.4    1.1433106 
  988000    379.78441   -62.633534    146902.69    1.1329261 
  989000    360.44664   -20.699912    142791.87    1.1655418 
  990000     373.0446   -76.939777    147304.93    1.1298325 
  991000    370.84253    60.404869     144768.7    1.1496262 
  992000    400.61536   -18.877462    147161.07     1.130937 
  993000    372.31566    117.47016    143560.12    1.1593045 
  994000    374.92731    23.130289    145682.02    1.1424189 
  995000    372.52616   -3.8368289    147159.27    1.1309508 
  996000    340.65569   -101.57236    149201.88    1.1154678 
  997000    399.43175    23.294296    147332.99    1.1296173 
  998000     365.9902   -14.773823    147784.56    1.1261656 
  999000    371.92708    72.196493    145176.42    1.1463975 
 1000000    341.50028   -13.831126    145628.61    1.1428379 
 1001000    401.01785     63.17744    142858.34    1.1649995 
 1002000    350.59577      54.8638    142269.03    1.1698252 
 1003000     377.1231   -18.065066    143642.18    1.1586422 
 1004000    336.82969   -31.563148    143612.47    1.1588819 
 1005000    401.79393    143.36514    142002.83    1.1720181 
 1006000    360.29564   -11.822648    144711.42    1.1500813 
 1007000    365.91725     21.77322    143749.83    1.1577746 
 1008000    390.56038    55.936713    144448.43    1.1521751 
 1009000    349.39958   -53.963716     145916.2    1.1405854 
 1010000    397.32813     37.73786     144179.1    1.1543274 
 1011000    374.08404    17.718534    144620.92    1.1508009 
 1012000    350.09183   -16.463343    145306.77    1.1453691 
 1013000     359.4717   -55.388145    147416.48    1.1289775 
 1014000    368.13849    88.343999    144581.47    1.1511149 
 1015000    351.77249   -19.035003    145242.52    1.1458758 
 1016000    396.66154    28.200002    143807.81    1.1573078 
 1017000    348.99413    50.758915    145803.12      1.14147 
 1018000    384.96657    23.468504    145594.06    1.1431091 
 1019000    377.48844    24.264505    144489.65    1.1518465 
 1020000    370.57941   -6.4147027    144453.49    1.1521348 
 1021000    383.99783    43.256149    141350.07    1.1774305 
 1022000    362.58263    109.90983    142322.57    1.1693851 
 1023000    395.67453    -82.43884    148744.52    1.1188976 
 1024000    366.03222   -19.646962    145388.57    1.1447247 
 1025000    391.46955   -24.442007    144893.21    1.1486383 
 1026000    367.43197    16.205442     145389.2    1.1447198 
 1027000    368.89169   -68.444118    147462.44    1.1286256 
 1028000    352.81214    5.7683724    145735.27    1.1420015 
 1029000    365.23815    30.701931    148602.73    1.1199652 
 1030000    378.82928   -5.1805837    147441.79    1.1287837 
 1031000    361.30022    49.641403    145937.25    1.1404209 
 1032000    349.81598   -122.79636    148511.05    1.1206566 
 1033000    370.52335    82.192623    142395.13    1.1687892 
 1034000    368.32883   -27.858781    145573.15    1.1432733 
 1035000    388.03925    29.207184    142956.54    1.1641992 
 1036000    369.95854    40.280851     143692.2    1.1582389 
 1037000    395.79642    145.07688    142609.73    1.1670304 
 1038000    385.02596    28.855841    144797.73    1.1493958 
 1039000    389.09566   -27.567045    146181.36    1.1385165 
 1040000    391.97108    77.960614    143758.07    1.1577081 
 1041000    354.26956   -20.262125     145065.1    1.1472772 
 1042000    388.72358    22.150408    143513.39     1.159682 
 1043000    350.11217   -44.727335    144141.95     1.154625 
 1044000    381.56361    58.001004    144064.93    1.1552423 
 1045000    369.76473     1.754807    145837.25    1.1412029 
 1046000    371.88143     45.77994    144771.47    1.1496042 
 1047000    404.98383   -120.04473    150090.06    1.1088669 
 1048000    352.55417    -8.838837    146778.65    1.1338835 
 1049000    368.04218   -1.8483353    145863.74    1.1409956 
 1050000    376.22324   -96.166723    147249.64    1.1302567 
 1051000    362.75883    47.368309    143553.33    1.1593593 
 1052000     382.8299    27.368973    144640.83    1.1506426 
 1053000    345.84364   -26.614693    146170.92    1.1385978 
 1054000    368.56546   -79.123734    148171.05    1.1232282 
 1055000    374.37539    45.853702    145394.38     1.144679 
 1056000    388.43883   -24.059348    146561.46    1.1355638 
 1057000    360.72913   -1.2225987       145637     1.142772 
 1058000    364.97514    -71.43378    147538.36    1.1280449 
 1059000    382.95403   -104.60865    148383.83    1.1216174 
 1060000    344.47053   -12.233437    147844.08    1.1257122 
 1061000    399.51743    4.0165329    146980.53    1.1323261 
 1062000    361.58692    26.137605    145578.79     1.143229 
 1063000    381.09185   -121.44697     149650.2    1.1121261 
 1064000    358.03275     3.746036    146945.86    1.1325933 
 1065000    383.93547    26.716497    147094.65    1.1314476 
 1066000    365.29809   -6.1185464    146950.03    1.1325611 
 1067000    361.27218    99.355891    144086.46    1.1550696 
 1068000    400.98317   -18.641657    147592.67    1.1276298 
 1069000    342.71136    15.232023    146924.01    1.1327617 
 1070000    405.96502    18.669996    148331.63    1.1220122 
 1071000    361.46578    28.676769    143911.64    1.1564727 
 1072000    405.06839    52.082215    146798.92    1.1337269 
 1073000    369.86143    113.42701    144457.62    1.1521019 
 1074000    394.68602    48.474439    146966.02    1.1324379 
 1075000    354.11109   -19.604685    148531.68    1.1205009 
 1076000    373.62858   -22.223619    150650.75    1.1047399 
 1077000    399.93015   -92.132587    153037.04    1.0875138 
 1078000     357.9561    38.720394    148194.43    1.1230509 
 1079000    374.97306   -28.038594    148528.09     1.120528 
 1080000    365.40658    27.352038    147497.95    1.1283539 
 1081000    379.93439    17.102265    146520.95    1.1358778 
 1082000    366.96764    66.897014    145146.71    1.1466322 
 1083000    384.71707      6.59554    146183.67    1.1384985 
 1084000    351.73634   -32.015447    146760.44    1.1340242 
 1085000    393.74359    68.282129    145854.78    1.1410657 
 1086000    392.45445   -73.431538    148972.55     1.117185 
 1087000    347.62352   0.60298757    146632.01    1.1350175 
 1088000      388.527     22.26482    147673.08    1.1270158 
 1089000    354.34808   -30.249232    148330.13    1.1220235 
 1090000     385.2994   -66.794645    148962.49    1.1172604 
 1091000    351.63014   -116.09908    148960.92    1.1172722 
 1092000    379.43457    62.152096    145580.64    1.1432145 
 1093000    376.51481    24.908923    146309.17     1.137522 
 1094000    366.69931   -19.010811    149822.87    1.1108444 
 1095000    362.29847    -13.91622    148977.83    1.1171454 
 1096000    388.70357   -44.485004    148344.24    1.1219168 
 1097000    355.53709   -90.766366    146338.51    1.1372939 
 1098000    378.76881    -90.21695    147285.19    1.1299839 
 1099000    358.69222   -24.152667    145171.96    1.1464328 
 1100000    376.84206    29.786848    143914.74    1.1564479 
 1101000    378.06632    22.345435    144022.38    1.1555836 
 1102000    363.45351    18.501908    145410.58    1.1445514 
 1103000    376.32146    33.390613    147899.78    1.1252883 
 1104000    374.67715    26.936844    148260.03     1.122554 
 1105000    378.73539    138.68956    146716.78    1.1343617 
 1106000    374.69646    60.551042     147268.7    1.1301104 
 1107000    368.09557    43.959007    149667.39    1.1119984 
 1108000    378.36197     12.04498     148382.1    1.1216305 
 1109000     380.0187    22.514412    149238.17    1.1151965 
 1110000    360.22073    9.5254117    148436.96     1.121216 
 1111000    368.82719   -51.223015     150098.3     1.108806 
 1112000    379.14683    129.32905    146556.67    1.1356009 
 1113000    363.26519    -83.89198    149071.05    1.1164468 
 1114000    373.85745   -40.713461    149330.39    1.1145079 
 1115000    354.74133    6.1887471    148759.01    1.1187887 
 1116000    351.30283    11.172006    148845.76    1.1181366 
 1117000    356.59767    26.111831    148830.78    1.1182491 
 1118000     366.5701    65.755216    148166.29    1.1232642 
 1119000    380.69094    142.10526    145204.91    1.1461726 
 1120000    368.74066    52.769779    146712.33    1.1343961 
 1121000    373.30136    16.617015    146648.07    1.1348932 
 1122000    398.62694   -12.757897    147047.74    1.1318086 
 1123000    349.82812     -3.23214     145262.1    1.1457213 
 1124000     388.1008   -49.875952    147757.77    1.1263698 
 1125000    344.85554    -97.97241    147829.99    1.1258195 
 1126000    405.55969    107.37004    144781.15    1.1495274 
 1127000      361.164   -36.437223    145518.22    1.1437048 
 1128000    382.31343    27.036344    143304.47    1.1613726 
 1129000     368.9576   -28.433024    144593.61    1.1510183 
 1130000    379.51074   -3.5874378    143442.47    1.1602553 
 1131000    417.34651    29.862203    144310.53    1.1532761 
 1132000    366.67594     46.41328    143488.11    1.1598863 
 1133000    371.99505    28.635623     144927.2    1.1483689 
 1134000    370.97582    26.954264    147007.64    1.1321173 
 1135000    375.62724    18.737102    145941.23    1.1403898 
 1136000    383.58188   -8.5562644    148236.41    1.1227329 
 1137000     360.0624   -25.028611    147584.55    1.1276919 
 1138000    382.60898   -45.725602    149403.99    1.1139588 
 1139000    364.41139  0.062415937    148387.37    1.1215907 
 1140000    355.15824   -95.459129     150180.3    1.1082006 
 1141000    397.30143    26.348571    146327.34    1.1373807 
 1142000     350.8521    36.516178    143876.62    1.1567542 
 1143000      388.486   -1.5469972    147650.21    1.1271903 
 1144000    359.43748    23.962298    147394.27    1.1291477 
 1145000    390.26825    25.222544    147981.81    1.1246645 
 1146000    364.85849   -5.0613851    147447.32    1.1287414 
 1147000    399.75238    43.020564    148094.92    1.1238055 
 1148000    359.21841    73.721883    148076.17    1.1239479 
 1149000    338.64028    1.7793316    148760.99    1.1187738 
 1150000     374.1078    -24.27272    146391.46    1.1368825 
 1151000    380.18676    39.689391    145799.22    1.1415006 
 1152000    374.73018    24.493824    147924.38    1.1251011 
 1153000    371.98534   -18.382926    149507.73    1.1131859 
 1154000     375.8895   -3.8853717    149560.62    1.1127922 
 1155000    384.50489    54.062511    145884.02     1.140837 
 1156000    393.59111   -123.83741    149382.18    1.1141214 
 1157000    350.85168   -79.653131    148168.38    1.1232484 
 1158000    384.11061   -12.282246    149114.78    1.1161194 
 1159000    365.47687    22.985453     147210.2    1.1305595 
 1160000    379.40448   -21.138965    148462.04    1.1210266 
 1161000    363.14872   -24.540241    148599.84     1.119987 
 1162000    382.24426    53.489838    147211.89    1.1305466 
 1163000    397.48474    38.723001    146070.19     1.139383 
 1164000    363.53241   -4.9615034    146721.02    1.1343289 
 1165000    381.22691   -36.633006     147359.5    1.1294141 
 1166000     385.5358    89.818948    147371.32    1.1293235 
 1167000     366.5773    101.76627    144872.15    1.1488053 
 1168000    393.04617    52.958414     145545.3    1.1434921 
 1169000     389.1666     24.71662       145813    1.1413926 
 1170000    347.81009   -7.1985532     145459.8    1.1441641 
 1171000    402.65616    7.2198811     145065.9    1.1472709 
 1172000    334.91778     81.60001    143515.19    1.1596675 
 1173000    405.44282    121.97345    142065.28    1.1715029 
 1174000    356.38871    26.851806    142903.57    1.1646308 
 1175000    362.80692    6.0377523    141836.72    1.1733907 
 1176000    375.63337    6.0412849    143329.82    1.1611673 
 1177000    364.85983   -4.0874467    145557.76    1.1433942 
 1178000    380.25948   -23.287746    146832.19    1.1334701 
 1179000    365.47737    12.757517    147060.84    1.1317077 
 1180000    398.15571     23.64615    148720.87    1.1190756 
 1181000    378.69505   -7.1470677    146731.79    1.1342456 
 1182000     364.8673   -13.849367    148481.21    1.1208818 
 1183000    393.90349   -6.8415586     147044.3     1.131835 
 1184000     358.8946   -43.480395    146829.28    1.1334925 
 1185000    379.00096    31.323381    146327.74    1.1373776 
 1186000    383.66334    21.332466    144880.65    1.1487379 
 1187000    370.08926    11.665403    143103.96    1.1629999 
 1188000    416.13332   -45.784421    143278.93    1.1615797 
 1189000    364.50716   -86.339919    145448.22    1.1442553 
 1190000    392.81327   -37.576355       146406    1.1367696 
 1191000    364.15318   -59.753804    148783.29     1.118606 
 1192000    381.22962    14.264208    144806.54    1.1493258 
 1193000    390.52391    24.457002    145268.98    1.1456671 
 1194000     372.4584    32.270624    146879.16    1.1331076 
 1195000    387.02058   -66.492025    148030.32    1.1242959 
 1196000    397.64438    35.612363    145251.69    1.1458034 
 1197000    366.81332   -70.343784    148144.93    1.1234262 
 1198000    349.25247    138.08436    148043.26    1.1241977 
 1199000    394.00255    87.340157    148121.13    1.1236067 
 1200000    356.80896    35.187567    147734.48    1.1265474 
 1201000    394.23833   -24.248774    150316.96     1.107193 
 1202000    350.86212   -30.212317    150959.37    1.1024813 
 1203000    387.04232   -23.300654    148903.11    1.1177059 
 1204000    372.89468   -5.1542716    147344.11     1.129532 
 1205000    375.24699    9.1777204    145380.16    1.1447909 
 1206000    343.06281  -0.73020958    145561.88    1.1433618 
 1207000    377.09249    21.947597     145287.9    1.1455179 
 1208000    373.66269   0.52559459    144160.57    1.1544758 
 1209000     372.4358   -9.0371594    145569.27    1.1433037 
 1210000    390.84119    26.052238    143463.53     1.160085 
 1211000    379.47974    35.308178    143323.68     1.161217 
 1212000    392.79553   -29.267388    147360.33    1.1294077 
 1213000    360.95087    85.742955    143552.89    1.1593629 
 1214000    415.72048     3.846541    145299.92    1.1454231 
 1215000     349.3218    133.04598       142671    1.1665293 
 1216000    381.10859    135.01813    141322.53      1.17766 
 1217000    358.71142   -120.27205    146385.14    1.1369316 
 1218000    361.65392   -73.536056    145268.03    1.1456746 
 1219000    385.36605    144.14187       140479    1.1847315 
 1220000    365.83734   -110.42662    146651.24    1.1348687 
 1221000    376.25076    44.636328    145237.28    1.1459171 
 1222000    365.84939    78.498783    144670.15    1.1504093 
 1223000    374.71536    51.588507       146510    1.1359627 
 1224000    369.19133   -92.046185    146742.76    1.1341608 
 1225000    366.59714    155.17296    140398.47     1.185411 
 1226000    380.61806    27.469971    143115.23    1.1629083 
 1227000    362.46787   -78.763586    146340.65    1.1372772 
 1228000    387.82836   -50.485856    145654.89    1.1426317 
 1229000    355.47474   -37.940363    145406.52    1.1445834 
 1230000    372.12297    29.693969    148335.64    1.1219818 
 1231000    368.20112    7.1522936    147745.35    1.1264645 
 1232000    377.97467   -17.544961    150380.92    1.1067221 
 1233000    387.53061    7.8892282    150407.51    1.1065265 
 1234000    362.40695   -17.248038    147822.28    1.1258782 
 1235000    364.90084    11.094185    145633.12    1.1428025 
 1236000     384.5229   -18.402961    145365.48    1.1449066 
 1237000    399.14123   -10.518859     145948.8    1.1403307 
 1238000    363.04259   -5.6365501    145458.65    1.1441732 
 1239000    399.44991    14.685693    147260.99    1.1301696 
 1240000    344.47698    4.4137982    146766.28    1.1339791 
 1241000     360.9873    21.895824    147892.45    1.1253441 
 1242000    388.33265    10.745152    149059.05    1.1165366 
 1243000    367.10034    2.9626156    147864.43    1.1255574 
 1244000    405.54913    16.322268    145918.05    1.1405709 
 1245000     355.6717   -14.337514    148165.39    1.1232711 
[...]
 3729000     378.3861    71.958525    144694.47     1.150216 
 3730000    374.96416   -67.891493    146395.83    1.1368486 
 3731000    369.23969    92.396543    143896.09    1.1565978 
 3732000    377.76515   -65.841658     149142.2    1.1159141 
 3733000    394.30946   -58.149045    147548.54    1.1279671 
 3734000    349.79905   -52.001157     144636.5     1.150677 
 3735000    390.01107    23.229078    144298.11    1.1533754 
 3736000    370.89009    18.285768    145020.18    1.1476326 
 3737000    391.73592    -52.88566    147652.55    1.1271725 
 3738000    349.59305    -79.83722    148200.16    1.1230075 
 3739000    383.31944   -79.726099     149496.3     1.113271 
 3740000    377.44658    -72.30706    148868.71    1.1179642 
 3741000    340.89074    66.969457    143372.33     1.160823 
 3742000    377.85549     45.25228    145172.62    1.1464275 
 3743000    371.52111    31.152263    147120.04    1.1312523 
 3744000    392.45304    68.068489    145100.76    1.1469953 
 3745000    347.65291   -42.975053    148407.35    1.1214397 
 3746000    375.82129    71.798614    148924.77    1.1175434 
 3747000    378.91013   -47.860668    151349.85     1.099637 
 3748000    344.69996   -54.935571    149798.65     1.111024 
 3749000    396.03656   -28.189893    147974.96    1.1247166 
 3750000    371.30109    53.466737    145703.29    1.1422521 
 3751000    396.96363    34.222144    146262.57    1.1378844 
 3752000    356.32713    40.745148    143852.51    1.1569481 
 3753000    373.03697   -48.398336    144735.81    1.1498874 
 3754000    407.91124    76.194095    144198.04    1.1541758 
 3755000    370.25064     41.34519     144324.2    1.1531669 
 3756000    383.18584    89.396772    144271.31    1.1535897 
 3757000    375.97906    57.385853    147087.46    1.1315029 
 3758000    378.57232    75.814656    146606.77    1.1352129 
 3759000    371.81951    -65.20767    150005.96    1.1094885 
 3760000    359.01846    45.950071    146472.12    1.1362564 
 3761000    371.63895   -15.644003    149199.68    1.1154842 
 3762000     374.4682   -4.7162802    146366.29     1.137078 
 3763000    387.43658    71.590562    145254.28     1.145783 
 3764000    356.78801   -80.352172    147412.24      1.12901 
 3765000    392.48469   -86.509774    148117.85    1.1236316 
 3766000    320.90791   -79.510112     146543.8    1.1357007 
 3767000    367.56989   -62.557104    145538.76    1.1435434 
 3768000    388.49709    34.415187    144540.75    1.1514392 
 3769000    411.27344    65.278499    144501.08    1.1517553 
 3770000    364.13739    -50.16973    147046.98    1.1318144 
 3771000    392.38259   0.24290988    145418.16    1.1444918 
 3772000    359.16413   -16.601934    145353.75    1.1449989 
 3773000    360.56324    18.045522    148188.53    1.1230956 
 3774000    360.98869   -61.428254     149872.8    1.1104743 
 3775000    380.16213   -60.853416    148395.49    1.1215293 
 3776000    367.73675    16.838995    144773.91    1.1495848 
 3777000    376.67758    86.106498    144714.03    1.1500605 
 3778000    379.23408   -2.8055794       146914    1.1328389 
 3779000    365.59471   -72.116293    148638.17    1.1196982 
 3780000    420.54908    56.155752    147526.89    1.1281326 
 3781000      369.056   -48.010449       149564    1.1127671 
 3782000    362.08986    57.796097    146977.01    1.1323532 
 3783000    398.51643   -57.011836    151495.38    1.0985806 
 3784000    344.97733    10.298977    147761.84    1.1263388 
 3785000    374.65227   -35.398093    147388.27    1.1291936 
 3786000    366.55398    68.044018    147721.98    1.1266427 
 3787000    388.10002    67.820459    147474.15     1.128536 
 3788000    335.99638   -62.288413    151519.25    1.0984076 
 3789000    383.87766      49.5446    149565.03    1.1127594 
 3790000    364.32131   -73.235584    153206.44    1.0863113 
 3791000      379.738    55.826606    148259.82    1.1225556 
 3792000    360.24057    -73.68779    152435.99    1.0918018 
 3793000    380.79947    41.432064    148548.36    1.1203751 
 3794000    346.94871   -55.490036    150642.81    1.1047981 
 3795000    380.91835   -57.214718       149023    1.1168068 
 3796000    365.63555    22.151202    147763.24    1.1263281 
 3797000    389.49409   -36.567114    150145.73    1.1084557 
 3798000    383.30155     60.83158     148384.2    1.1216146 
 3799000    356.83577    52.373728    145272.22    1.1456416 
 3800000    407.48572    64.739147    145198.13    1.1462261 
 3801000    363.32395    41.138801    145430.48    1.1443948 
 3802000    380.01276    75.837826    145913.28    1.1406082 
 3803000    366.41492    68.045879    145576.41    1.1432476 
 3804000    384.48455    79.603638    146084.35    1.1392726 
 3805000    365.45214   -38.812351    146035.49    1.1396537 
 3806000    395.44357   -82.014871    145788.94     1.141581 
 3807000    349.34711    84.483662    144458.78    1.1520926 
 3808000    385.72784    6.3631484    145885.34    1.1408267 
 3809000    371.97497   -34.814917    145544.85    1.1434956 
 3810000    357.15364    27.703103    145735.06    1.1420031 
 3811000    363.12505   -41.185572    147960.79    1.1248243 
 3812000    372.02138   -54.238614    148626.52    1.1197859 
 3813000    366.10574   -27.867796    148427.67    1.1212861 
 3814000    385.87291    16.699599    146451.78    1.1364142 
 3815000    363.36083    20.376972       144972    1.1480141 
 3816000    397.04684    23.049853    145326.78    1.1452114 
 3817000     368.8348   -70.012322    147595.81    1.1276058 
 3818000    352.29175   -56.843894    146691.88    1.1345542 
 3819000    408.20681    27.941653    144463.59    1.1520543 
 3820000    369.42417    54.780689    145131.49    1.1467524 
 3821000    385.69728    82.501228    145552.06    1.1434389 
 3822000     371.1674   -68.662485    149462.22    1.1135248 
 3823000    363.95307   -9.6831764    147990.65    1.1245973 
 3824000    348.06038    56.002822    144260.14     1.153679 
 3825000    377.35268    20.729725    145313.15    1.1453189 
 3826000    381.00751    31.618385    144861.76    1.1488877 
 3827000    374.77821    14.537299     144681.5    1.1503191 
 3828000    360.73519   -65.278915    148861.21    1.1180206 
 3829000    385.88845   -14.782817    146479.63    1.1361982 
 3830000    362.12571     -54.8499    147338.65    1.1295739 
 3831000    381.63828   -78.529319    147293.55    1.1299198 
 3832000    357.21606   -68.766715    149289.55    1.1148127 
 3833000    347.06487   -20.193975    149675.28    1.1119398 
 3834000    389.98499   -77.463814    149900.67    1.1102678 
 3835000    363.09912    -58.60329    149204.32    1.1154495 
 3836000    378.46872   -61.556629    148225.02    1.1228191 
 3837000    349.76252    62.845319    146154.72    1.1387241 
 3838000    388.26166   -12.751737    147315.44    1.1297518 
 3839000    373.09984    45.294218    146386.59    1.1369203 
 3840000    335.48423   -12.498553    149621.94    1.1123362 
 3841000    383.48023    66.498508    147979.97    1.1246785 
 3842000    366.71437   -27.199952    148552.72    1.1203423 
 3843000    377.50003    17.915217    148913.75    1.1176261 
 3844000    371.15271    77.970491    146554.16    1.1356204 
 3845000    402.00992    82.352722    144360.27    1.1528788 
 3846000    410.09824    82.119066    144999.92     1.147793 
 3847000      373.256    65.731164       145604     1.143031 
 3848000    396.31007    51.974654    145301.93    1.1454073 
 3849000    360.66328     23.12747    145179.92    1.1463699 
 3850000    381.41883   -45.088267    147552.34     1.127938 
 3851000    368.73485   -44.841116    145650.69    1.1426646 
 3852000    397.92869    38.249753    145209.47    1.1461366 
 3853000    368.65131    56.631951     142899.7    1.1646623 
 3854000    399.45654   -15.507756    143372.66    1.1608203 
 3855000    356.99061   -19.421911    143698.38     1.158189 
 3856000    395.11292   -66.049875    145913.33    1.1406078 
 3857000    368.85422    42.563353    143039.68    1.1635225 
 3858000    369.82745    13.745366    146480.86    1.1361886 
 3859000    404.07632    70.238902    143552.33    1.1593674 
 3860000    361.59022    69.654663    143797.16    1.1573935 
 3861000    394.68749    56.020422    143026.62    1.1636288 
 3862000    394.13979    -15.14596    143933.59    1.1562964 
 3863000    348.87052   -29.155411    144404.45     1.152526 
 3864000    394.61349   -9.0550616    143919.49    1.1564097 
 3865000    367.43169    86.617358    141231.45    1.1784195 
 3866000    364.15743  -0.23996388    142377.19    1.1689364 
 3867000    364.79383    51.407751     143628.1    1.1587558 
 3868000    387.60585   -12.153696    144870.43     1.148819 
 3869000    409.62469   -46.394045    147629.95    1.1273451 
 3870000    368.79634    71.362836    146322.49    1.1374184 
 3871000    374.44722    -67.65488    150241.17    1.1077515 
 3872000    386.63292   -62.027816    149667.63    1.1119965 
 3873000    351.77322   -60.346188    146596.22    1.1352945 
 3874000    374.29542    12.394504     145480.9    1.1439982 
 3875000     393.4499   -12.663699    145941.29    1.1403893 
 3876000    355.34816    47.318799    145115.99    1.1468749 
 3877000    411.15458   -54.987169    148806.03    1.1184352 
 3878000    371.22397    68.626203    144731.38    1.1499226 
 3879000    376.21168    7.5725886    145685.06     1.142395 
 3880000      391.229    90.585855    143340.78    1.1610785 
 3881000    364.15249   -48.902554    146189.75    1.1384511 
 3882000     356.8406    62.634924     143633.3    1.1587138 
 3883000    403.79952    67.696047    146879.36    1.1331061 
 3884000    361.81967    64.173401     146742.5    1.1341628 
 3885000    378.88354    2.7641414    149574.05    1.1126923 
 3886000    397.74344    58.365426    146329.99    1.1373601 
 3887000    380.09312    53.518644    146323.45    1.1374109 
 3888000    361.25509   -71.263572    149317.49    1.1146042 
 3889000    381.19026   -2.0951722    147446.63    1.1287467 
 3890000      362.684   -78.182966     150116.1    1.1086745 
 3891000     366.4952    40.348607    147399.68    1.1291062 
 3892000    372.02134   -64.743062    153022.77    1.0876152 
 3893000    360.26592   -44.814042     152779.2    1.0893492 
 3894000     380.6927   -54.448936    153004.51     1.087745 
 3895000    349.88694   -56.256192    153377.75     1.085098 
 3896000    392.10634   -35.648409    153018.64    1.0876445 
 3897000    365.70065   -13.269304     149909.2    1.1102047 
 3898000    370.75925   -66.194067    148818.42     1.118342 
 3899000     358.7089    73.521592    144556.11    1.1513169 
 3900000    391.77798   -72.509525    147573.92    1.1277731 
 3901000    364.60774    69.019603    144066.47    1.1552299 
 3902000    382.14081    15.359116    146265.79    1.1378593 
 3903000    349.05921   -70.677261    149592.67    1.1125538 
 3904000    388.57581    33.387023    147855.28     1.125627 
 3905000     400.1165   -61.873677    149836.46    1.1107436 
 3906000    371.02356    11.137751     148134.2    1.1235075 
 3907000    405.08131    57.668652    147456.84    1.1286685 
 3908000    355.68008   -41.152043    148106.48    1.1237178 
 3909000    373.79773   -15.039684    147135.78    1.1311313 
 3910000    353.28763   -43.306787    146692.76    1.1345474 
 3911000    375.11806    56.435898    145456.34    1.1441914 
 3912000    365.35065   -54.835278    148766.05    1.1187357 
 3913000    392.20742    -1.995673    147906.56    1.1252367 
 3914000    353.40547    51.292674    148489.04    1.1208228 
 3915000    373.55381    44.460689    149005.78    1.1169358 
 3916000     394.7215    50.019236    147814.77    1.1259355 
 3917000    372.65412    61.626145     147951.7    1.1248934 
 3918000    385.89214     4.779044    147656.34    1.1271436 
 3919000    362.84798   -33.469914    149924.58    1.1100907 
 3920000    387.45261    25.235155    149545.05     1.112908 
 3921000    363.01538   -21.246459    148033.62    1.1242709 
 3922000    369.85078   -59.190728    149003.47    1.1169531 
 3923000    367.89612    33.426581    147048.84    1.1318001 
 3924000    376.32907    -69.74999     148958.7    1.1172888 
 3925000    344.99816    75.748569    144516.34    1.1516337 
 3926000    375.44298   -56.565703    147964.88    1.1247932 
 3927000    365.89746   -28.098842    148566.25    1.1202403 
 3928000    408.81845   -56.664021    146953.94     1.132531 
 3929000    366.44409    46.987128    144855.65    1.1489361 
 3930000    399.51012   -56.605855    147429.97    1.1288742 
 3931000    376.00534    78.767906    142923.87    1.1644653 
 3932000     388.8783   -72.711435    145832.41    1.1412408 
 3933000    341.44467    24.900207    146419.17    1.1366673 
 3934000    387.85621   -7.0252551    148114.03    1.1236606 
 3935000    370.48396    29.287252    146193.92    1.1384187 
 3936000    374.03459   -63.474321    148981.86    1.1171151 
 3937000    370.37414   -57.104251    148250.38    1.1226271 
 3938000    387.27909    82.078345    144856.02    1.1489332 
 3939000    362.17752    58.252013    145377.33    1.1448132 
 3940000    371.40344   -53.325019    146771.87    1.1339359 
 3941000    382.90355   -45.311073    147675.68    1.1269959 
 3942000      389.396   -8.1869735    147930.57    1.1250541 
 3943000    365.39114   -54.692879    149070.04    1.1164543 
 3944000    392.12294    -12.29575    147097.84    1.1314231 
 3945000    363.32695   -24.017206    146694.66    1.1345327 
 3946000    375.89398    25.696643    145248.66    1.1458274 
 3947000    376.99876    36.983344    144132.93    1.1546972 
 3948000    388.51211   -24.820691    144858.72    1.1489118 
 3949000    376.81255   -26.227499    145804.86    1.1414564 
 3950000    371.30666    14.666785    146416.73    1.1366863 
 3951000    362.19703   -38.532735    147629.91    1.1273453 
 3952000    360.55187    79.561058    146493.17    1.1360932 
 3953000    386.65617     52.07219    149415.51    1.1138729 
 3954000    351.05739    42.053944    147410.25    1.1290252 
 3955000    399.09923   -7.7500595    149663.83    1.1120248 
 3956000    345.34971    69.430129    148884.41    1.1178463 
 3957000    369.36218    59.928742    149963.88    1.1097998 
 3958000    387.34807    76.428311    148764.62    1.1187464 
 3959000     375.1843    74.859486    147861.78    1.1255775 
 3960000    369.22308   -19.829627    149690.01    1.1118303 
 3961000    389.56752    55.993503    147097.34    1.1314269 
 3962000    365.83065   -49.934504    149129.28    1.1160109 
 3963000    389.28059    28.134857    147271.02    1.1300926 
 3964000    357.09236   -53.747316    148354.32    1.1218405 
 3965000    386.18416     14.22889    148620.22    1.1198335 
 3966000    350.68664    61.384317       145893    1.1407668 
 3967000    376.74396    39.836345    145065.89     1.147271 
 3968000    363.48926    49.656223    145307.95    1.1453598 
 3969000    385.78825   -46.789224    147637.18    1.1272898 
 3970000    371.91863   -72.705437     146713.4    1.1343878 
 3971000    369.43078   -86.637805     146760.6     1.134023 
 3972000     355.9754    53.763996    143833.83    1.1570984 
 3973000    353.64529    20.659129    143159.01    1.1625527 
 3974000    378.37625   -54.268873    144580.73    1.1511209 
 3975000    380.89806    19.941375    147583.89    1.1276968 
 3976000    359.88078    72.011113    146295.89    1.1376252 
 3977000    371.95791    17.544812    148034.39     1.124265 
 3978000    375.79847    70.027913    145749.19    1.1418924 
 3979000    358.42258    76.556233    146766.77    1.1339753 
 3980000    373.86796   -54.961878    146886.71    1.1330494 
 3981000    352.37899   -43.326626    147194.36    1.1306812 
 3982000    380.87196   -9.5276037     146372.7    1.1370282 
 3983000    360.68899    83.845918    143927.34    1.1563466 
 3984000    378.69102    93.897261    145480.15    1.1440041 
 3985000    375.79638    87.093127    149302.25    1.1147179 
 3986000    374.56226     25.83433    151595.62    1.0978542 
 3987000    371.45626   -33.188232    150786.82    1.1037429 
 3988000    362.26768   -28.230293    149075.48    1.1164136 
 3989000    398.73473   -36.796937    148503.21    1.1207158 
 3990000    353.72178     42.38128     145552.5    1.1434354 
 3991000    370.24187    52.398594    144084.82    1.1550828 
 3992000    398.38565   -28.654469     148232.4    1.1227633 
 3993000    362.32656    51.741803    147179.13    1.1307982 
 3994000    377.01353    85.310948    146520.34    1.1358825 
 3995000    364.09891    29.410658    148052.51    1.1241275 
 3996000    379.24527     6.064983    147887.56    1.1253813 
 3997000    352.57361   -45.936721     147575.3    1.1277625 
 3998000    381.98792   -61.408286    148462.46    1.1210234 
 3999000    349.52994   -60.516077    149233.76    1.1152295 
 4000000    380.17282    63.684218    148979.46    1.1171331 
Loop time of 494.706 on 1 procs for 4000000 steps with 384 atoms

Performance: 349.298 ns/day, 0.069 hours/ns, 8085.613 timesteps/s
100.0% CPU use with 1 MPI tasks x no OpenMP threads

MPI task timing breakdown:
Section |  min time  |  avg time  |  max time  |%varavg| %total
---------------------------------------------------------------
Pair    | 318.16     | 318.16     | 318.16     |   0.0 | 64.31
Neigh   | 109.53     | 109.53     | 109.53     |   0.0 | 22.14
Comm    | 20.386     | 20.386     | 20.386     |   0.0 |  4.12
Output  | 0.057351   | 0.057351   | 0.057351   |   0.0 |  0.01
Modify  | 41.527     | 41.527     | 41.527     |   0.0 |  8.39
Other   |            | 5.039      |            |       |  1.02

Nlocal:    384 ave 384 max 384 min
Histogram: 1 0 0 0 0 0 0 0 0 0
Nghost:    1170 ave 1170 max 1170 min
Histogram: 1 0 0 0 0 0 0 0 0 0
Neighs:    7214 ave 7214 max 7214 min
Histogram: 1 0 0 0 0 0 0 0 0 0

Total # of neighbors = 7214
Ave neighs/atom = 18.7865
Neighbor list builds = 315647
Dangerous builds = 36659

#unfix 		1
#fix		1 all nve
#run 		2000000

#dump pos all xyz 10 lj.xyz

dump		2 all custom 1 lj_trajectory_match_npt.out id mass xu yu zu vx vy vz fx fy fz
dump_modify	2 sort id

run		2000
Per MPI rank memory allocation (min/avg/max) = 4.431 | 4.431 | 4.431 Mbytes
Step Temp Press Volume Density 
 4000000    380.17282    63.684218    148979.46    1.1171331 
 4001000    385.57435    47.861675    149245.15    1.1151444 
 4002000    368.82598    60.686056    148358.78    1.1218068 
Loop time of 2.9387 on 1 procs for 2000 steps with 384 atoms

Performance: 29.401 ns/day, 0.816 hours/ns, 680.572 timesteps/s
99.2% CPU use with 1 MPI tasks x no OpenMP threads

MPI task timing breakdown:
Section |  min time  |  avg time  |  max time  |%varavg| %total
---------------------------------------------------------------
Pair    | 0.15541    | 0.15541    | 0.15541    |   0.0 |  5.29
Neigh   | 0.057186   | 0.057186   | 0.057186   |   0.0 |  1.95
Comm    | 0.010209   | 0.010209   | 0.010209   |   0.0 |  0.35
Output  | 2.6906     | 2.6906     | 2.6906     |   0.0 | 91.56
Modify  | 0.022483   | 0.022483   | 0.022483   |   0.0 |  0.77
Other   |            | 0.00278    |            |       |  0.09

Nlocal:    384 ave 384 max 384 min
Histogram: 1 0 0 0 0 0 0 0 0 0
Nghost:    1165 ave 1165 max 1165 min
Histogram: 1 0 0 0 0 0 0 0 0 0
Neighs:    7223 ave 7223 max 7223 min
Histogram: 1 0 0 0 0 0 0 0 0 0

Total # of neighbors = 7223
Ave neighs/atom = 18.8099
Neighbor list builds = 168
Dangerous builds = 0

####################################
# 6) Advanced inputs
####################################

#dump		2 all custom 1000 positions.lammpstrj id x y z vx vy vz
#dump_modify	2 sort id

#compute		RDF all rdf 150 cutoff 3.5
#fix		RDF_OUTPUT all ave/time 25 100 5000 c_RDF[*] file rdf_lj.out mode vector

#compute		MSD all msd
#fix		MSD_OUTPUT all ave/correlate 1 5000 5000 c_MSD[*] file msd_lj.out ave running

#compute		VACF all vacf
#fix		VACF_OUTPUT all ave/correlate 1 2500 5000 c_VACF[*] file vacf_lj.out ave running

#run		5000

#write_restart	restart2.lj.equil
Total wall time: 0:08:17
