LAMMPS (3 Mar 2020)
####################################
# Example LAMMPS input script      #
# for a simple Lennard Jones fluid #
####################################


units		real
atom_style	atomic
dimension	3
boundary	p p p

lattice 	custom 13 a1 1.0 0.0 0.0 a2 0.0 1.0 0.0 a3 0.0 0.0 1.0 		basis 0.0 0.0 0.0 basis 0.5 0.5 0.5 		basis 0.25 0.25 0.0 basis 0.75 0.75 0.0 basis 0.75 0.25 0.5 basis 0.25 0.75 0.5
Lattice spacing in x,y,z = 13 13 13
region 	space block 0 5 0 5 0 5
create_box 	2 space
Created orthogonal box = (0 0 0) to (65 65 65)
  1 by 1 by 1 MPI processor grid
create_atoms 	1 box basis 3 2 basis 4 2 basis 5 2 basis 6 2
Created 750 atoms
  create_atoms CPU = 0.00102745 secs

####################################
# 2) Define interparticle interactions
#   - Here, we use truncated & shifted LJ
#   - All atoms of type 1 (in this case, all atoms)
#     have a mass of 1.0
####################################

pair_style	lj/cut 15
pair_modify	shift yes
pair_coeff	1 1 0.5 4.25
pair_coeff	1 2 1.45 5.75 #0.8 7.5
pair_coeff	2 2 1.0 7.5 #0.6 10.0
mass		1 102.181
mass		2 340.419

####################################
# 3) Neighbour lists
#   - Each atom will only consider neighbours
#     within a distance of 2.8 of each other
#   - The neighbour lists are recalculated
#     every timestep
####################################

neighbor        0.3 bin
neigh_modify    delay 10 every 1

####################################
# 4) Define simulation parameters
#   - We fix the temperature and
#     linear and angular momenta
#     of the system
#   - We run with fixed number (n),
#     volume (v), temperature (t)
####################################

#fix		LinMom all momentum 50 linear 1 1 1 angular
#fix		1 all nvt temp 1.00 1.00 5.0
fix 		1 all npt temp 373.0.0 373.0 25.0 iso 1.0 1.0  10.0

####################################
# 5) Final setup
#   - Define starting particle velocity
#   - Define timestep
#   - Define output system properties (temp, energy, etc.)
#   - Define simulation length
####################################

velocity	all create 373.0 199085 mom no

timestep	0.5

thermo_style	custom step temp press vol density


run_style	verlet

thermo		1000
run		4000000
Neighbor list info ...
  update every 1 steps, delay 10 steps, check yes
  max neighbors/atom: 2000, page size: 100000
  master list distance cutoff = 15.3
  ghost atom cutoff = 15.3
  binsize = 7.65, bins = 9 9 9
  1 neighbor lists, perpetual/occasional/extra = 1 0 0
  (1) pair lj/cut, perpetual
      attributes: half, newton on
      pair build: half/bin/atomonly/newton
      stencil: half/bin/3d/newton
      bin: standard
Per MPI rank memory allocation (min/avg/max) = 3.133 | 3.133 | 3.133 Mbytes
Step Temp Press Volume Density 
       0          373    35859.512       274625    1.1836445 
    1000    372.70914   -5.9787511    582447.93   0.55809003 
    2000     374.1916   -4.9390947     358770.4   0.90603456 
    3000    381.82577  -0.13122572    329470.08   0.98660972 
    4000    392.96464  -0.47249068    311383.84    1.0439154 
    5000    376.51481  -0.79634128     296853.3    1.0950135 
    6000    376.65657  0.091720135    288097.75     1.128292 
    7000    371.45453   0.51162606    285558.18    1.1383263 
    8000    388.06808   0.61655406    283466.26    1.1467269 
    9000     360.9803 -0.082293325    281370.39    1.1552686 
   10000    379.61211   0.67348712    280171.32    1.1602129 
   11000    367.98177   0.39738459    278814.43    1.1658593 
   12000    386.26292  -0.65275934    272975.27    1.1907979 
   13000    357.58178    1.5816527    272707.63    1.1919666 
   14000    363.87976  -0.33050634    276239.88     1.176725 
   15000    351.54584    2.1360324    276206.97    1.1768652 
   16000    376.95768   0.44789746    278724.77    1.1662343 
   17000    366.50911    1.4840089    279347.62     1.163634 
   18000    383.96903   0.49669104    280284.09    1.1597461 
   19000    364.98977    1.5055895    283992.31    1.1446028 
   20000     381.9691  -0.26548414    284207.48    1.1437362 
   21000    367.26288    1.4010114    283322.16    1.1473101 
   22000    353.58331 -0.095185826    284130.18    1.1440473 
   23000    384.90931    1.0833343    282006.07    1.1526645 
   24000    370.25343 -0.095705022    283141.93    1.1480404 
   25000     380.3404     1.347474    283842.45    1.1452071 
   26000    363.32924  0.098840198    283742.48    1.1456106 
   27000    374.62572   0.92413052    284173.78    1.1438718 
   28000    378.46738    1.6815024    285320.21    1.1392757 
   29000    360.13874  -0.32578746       282341    1.1512971 
   30000    378.32726    1.1561957    281276.75    1.1556532 
   31000    380.77575   0.60818789    281731.48    1.1537879 
   32000     363.6312   -4.5831932    284467.73    1.1426898 
   33000      372.312    12.714567    283938.16     1.144821 
   34000     370.4951   0.92032957    285743.49    1.1375881 
   35000    401.69127    6.6878558    282901.05    1.1490179 
   36000    365.67154   0.74496865     283412.5    1.1469444 
   37000     375.4469     0.794917    284866.37    1.1410907 
   38000    360.64397  -0.23433373    284422.92    1.1428699 
   39000    383.51511   -1.6552344     286942.3    1.1328354 
   40000     376.4344   0.59233349     287308.6     1.131391 
   41000    374.63981    8.2393956    285706.35     1.137736 
   42000    369.61182   -45.641012    291155.28    1.1164434 
   43000    386.42797   -1.5058636    290349.35    1.1195423 
   44000     391.5741    3.1678694     287901.1    1.1290627 
   45000      359.826   -45.602368    286848.95     1.133204 
   46000    371.09428   -1.6370346    286872.85    1.1331096 
   47000    375.82079  -0.99440629       285529    1.1384426 
   48000    404.36215    98.955937    282701.85    1.1498276 
   49000    370.66996   0.80979748    287467.68     1.130765 
   50000    382.67244    -10.56444    291629.52    1.1146278 
   51000    368.70246    3.7667178    291632.09     1.114618 
   52000    387.70735  -0.20937855    288913.12    1.1251077 
   53000    359.25263    95.584006     286817.2    1.1333295 
   54000    382.26005    5.5784783    290512.82    1.1189124 
   55000     370.1502  -0.28619924    288465.29    1.1268544 
   56000    376.82945    36.313102    285705.59     1.137739 
   57000    371.74452    3.4972124    287165.22     1.131956 
   58000     389.0275   -5.6353445    285117.75    1.1400847 
   59000    368.94343    3.4793693    283026.54    1.1485085 
   60000    374.99909    -1.979482    284064.83    1.1443106 
   61000    377.87077   -3.2882825     284323.7    1.1432687 
   62000    362.19199    5.0172223     286850.8    1.1331967 
   63000    376.65054   -71.247903    289339.04    1.1234515 
   64000    371.49917    2.2040458    284350.21    1.1431621 
   65000    385.07909   -7.5958884    283063.37     1.148359 
   66000    360.18111   -48.733218    287472.71    1.1307452 
   67000    382.67589   -4.0553752    284080.47    1.1442475 
   68000    368.61809     1.936995    285079.28    1.1402385 
   69000    352.82842   0.14965509    285975.34    1.1366658 
   70000    375.03151    1.5896992       289124    1.1242871 
   71000     370.4652   -7.7003511    287596.74    1.1302575 
   72000    392.19094   -76.208545    289805.48    1.1216433 
   73000    369.17748    2.8109788    284690.77    1.1417946 
   74000    369.31985    1.6002593    282862.58    1.1491742 
   75000    377.83299   -87.217597     288418.4    1.1270376 
   76000    369.20349     3.625865    283756.17    1.1455553 
   77000    366.08423    1.6642824    283629.95    1.1460651 
   78000    400.58078   -1.0515555    283962.02    1.1447248 
   79000    351.52364   -89.345269    287600.25    1.1302437 
   80000    341.53321    84.544697    277984.61    1.1693395 
   81000    378.38427    11.364383     279922.7    1.1612434 
   82000    360.50408   -3.4930366     279777.7    1.1618452 
   83000    393.61467   -0.1805649    279994.25    1.1609466 
   84000    359.18616  -0.97224796    282173.55    1.1519803 
   85000    376.49697   -144.15905    289304.87    1.1235842 
   86000    357.26011    1.2006867    287342.31    1.1312583 
   87000    370.42969   -50.409204    285959.72    1.1367279 
   88000    388.36472  -0.11664953     282937.7    1.1488691 
   89000    352.10331   -5.1974916    281678.26    1.1540059 
   90000    390.31065   -14.879458    283152.62    1.1479971 
   91000    359.73953   -2.0841676    283238.11    1.1476506 
   92000    391.31363   -78.210622    287929.82    1.1289501 
   93000    370.74739   -1.9001197    285247.31    1.1395669 
   94000    382.63503    15.147206    282964.16    1.1487617 
   95000    374.50637   -64.692048    284485.76    1.1426174 
   96000    358.70629    1.3660966    283304.22    1.1473828 
   97000    404.65695   0.90878423    284970.07    1.1406755 
   98000    371.40812   -2.4301628    286058.56    1.1363351 
   99000    383.31566   -5.6064926    286439.01    1.1348258 
  100000    362.04577    15.216777    284556.69    1.1423326 
  101000    379.65748   -47.820124    289099.56    1.1243821 
  102000    358.99877   -106.94588    291582.78    1.1148065 
  103000    377.72707   -34.901131    285173.13    1.1398633 
  104000    379.10288    8.4194683    283670.69    1.1459005 
  105000    366.81657    3.4353402    283208.82    1.1477693 
  106000    356.21214     9.153797    282826.84    1.1493194 
  107000    367.25953    18.782055    281183.33    1.1560372 
  108000    381.03118    112.71329    277879.92      1.16978 
  109000    391.87329   -17.933854    285576.16    1.1382546 
  110000    370.02533   -5.6074844    287213.89    1.1317641 
  111000    373.05242    2.0780029    283762.92     1.145528 
  112000    383.15359    5.0882065    286646.29    1.1340052 
  113000    378.97169    3.7113501    285444.99    1.1387777 
  114000    371.54962    3.3513258    286775.71    1.1334934 
  115000    358.40401   -3.4182091    287959.45    1.1288339 
  116000    390.47805    -4.993727    291487.74      1.11517 
  117000    346.87083    4.0841923    291573.56    1.1148418 
  118000    372.15236   -12.942949    291604.57    1.1147232 
  119000    362.51458   -30.090131    289772.79    1.1217698 
  120000    366.60946   -5.2465858     289834.5     1.121531 
  121000    383.80671    134.63514    282866.92    1.1491566 
  122000    370.94831    13.959742    288063.43    1.1284264 
  123000     377.9264   -25.616341    290221.44    1.1200357 
  124000    389.32173   -9.9771861    290598.28    1.1185833 
  125000     373.7351   -3.1687345    289420.69    1.1231346 
  126000    380.92087    1.7666326     289600.4    1.1224376 
  127000    372.38417   -3.0237546    292555.17    1.1111011 
  128000    385.43291  -0.54750947    289853.38    1.1214579 
  129000    368.78193   -2.3682151    286922.28    1.1329144 
  130000    390.58068    2.5317553    285654.21    1.1379436 
  131000     373.4272   -6.0633693    285180.68    1.1398331 
  132000    394.81356   -7.0320549    283115.11    1.1481492 
  133000    373.60477   -9.2308661     285192.2    1.1397871 
  134000    354.43971    -8.097979    285233.12    1.1396236 
  135000    388.58476    13.822324    288046.04    1.1284945 
  136000    357.20603   -9.7847606    288701.54    1.1259323 
  137000    378.66692   -84.889262    292707.56    1.1105227 
  138000    346.71003   -126.79018     292034.8     1.113081 
  139000    378.44814      41.0067     284861.7    1.1411094 
  140000    364.11854    12.369755    288137.03    1.1281382 
  141000    384.69587   0.66885987    289775.93    1.1217577 
  142000    364.77806   -1.4574822    288791.22    1.1255826 
  143000    371.11929   -2.6886057     292904.8    1.1097748 
  144000    343.51497    4.1275929    289974.01    1.1209914 
  145000    363.19094    2.4613545    287473.06    1.1307438 
  146000    390.43351   0.74620933     286695.1    1.1338121 
  147000    355.97304    2.4084394    287052.47    1.1324006 
  148000    371.95172     4.393313    286908.66    1.1329682 
  149000     387.5413    13.464563    286511.66    1.1345381 
  150000    361.48267     1.601397    285596.14     1.138175 
  151000    375.52543   -8.0291184    287338.28    1.1312742 
  152000    391.19947   -9.3638636    291110.02    1.1166169 
  153000    360.83043  -0.94039108    291194.97    1.1162912 
  154000    373.01249   -3.3562262    289846.38     1.121485 
  155000    380.05289    -2.041208    290928.31    1.1173144 
  156000     372.0599     5.857996    290035.87    1.1207523 
  157000    374.88389    -4.496044    288735.64    1.1257993 
  158000    368.54226   -5.2717715     290323.5     1.119642 
  159000    376.41277   -52.254725    291061.88    1.1168016 
  160000    364.58017   -70.882219    291887.53    1.1136426 
  161000    378.95141    13.116521    284927.78    1.1408448 
  162000    358.92791    5.7802661    286959.69    1.1327667 
  163000    378.62189  -0.72339477    291151.36    1.1164584 
  164000    369.33503   -8.5040514    291438.89    1.1153569 
  165000    365.40141   -114.17371    292276.18    1.1121617 
  166000    360.77264   -28.352096    290468.72    1.1190822 
  167000    381.54298   -3.7102563    288458.02    1.1268828 
  168000    376.87496   -6.0268074    288572.13    1.1264372 
  169000    365.62119   -1.8697735    288047.52    1.1284887 
  170000    377.93598    3.8376973    290511.82    1.1189162 
  171000    371.55626   -2.8485681    288315.26    1.1274408 
  172000    370.52169   -55.552776    288699.61    1.1259398 
  173000    383.89253     61.84751    282303.85    1.1514486 
  174000     369.8868   -7.1226244    286107.81    1.1361395 
  175000    376.16383   0.63334545    285845.47    1.1371822 
  176000    360.79674   -4.4223807    287434.11     1.130897 
  177000    381.58561    5.6628509    290867.57    1.1175477 
  178000    360.82168     39.72285    289884.52    1.1213375 
  179000    379.28157    114.72506    284941.69    1.1407891 
  180000    374.78359    3.2015913    289148.53    1.1241917 
  181000     377.0596    5.6995475    291827.39    1.1138721 
  182000    372.36876    12.460089    296323.59     1.096971 
  183000    379.66217   -110.96377    298335.61    1.0895728 
  184000    367.67482    13.160346    289250.66    1.1237948 
  185000    392.08175    3.1788094    287372.57    1.1311392 
  186000    361.72819    6.7570184    288815.63    1.1254875 
  187000    357.78964   -28.248647    287981.43    1.1287477 
  188000    378.26837    7.9578758    286634.73    1.1340509 
  189000     372.2733   -37.098331     286517.4    1.1345153 
  190000    378.79545    27.557533    285066.87    1.1402882 
  191000     391.2398    3.8936133    285043.72    1.1403808 
  192000    361.35286   -38.979635     285989.7    1.1366087 
  193000    383.82807    13.013237       287150     1.132016 
  194000    373.44687   -5.7537473    284952.84    1.1407445 
  195000    371.56554   -6.4194263    286116.12    1.1361065 
  196000    372.09039  -0.10151665    286659.78    1.1339518 
  197000    372.97415    7.3732617    287258.31    1.1315891 
  198000    367.49284   -8.7009125    286449.51    1.1347842 
  199000    376.92458     112.2053    283154.74    1.1479885 
  200000    372.62448   -9.3389156    285090.83    1.1401923 
  201000     370.7189   -6.6224336    284770.33    1.1414756 
  202000    377.49359   -8.0570307    286337.26    1.1352291 
  203000     371.8147    19.520715    282472.66    1.1507605 
  204000    374.09732    8.1619475    284695.08    1.1417773 
  205000    358.93961   -47.152691    286001.38    1.1365623 
  206000    368.54314   -20.588656    283206.86    1.1477772 
  207000    361.84373    5.1932205    282992.75    1.1486456 
  208000    361.56186   -57.529155    286885.19    1.1330609 
  209000    373.92941   -16.630969    285738.99     1.137606 
  210000    358.17291    7.8681447    283841.19    1.1452122 
  211000    385.93696    88.518084    281885.48    1.1531576 
  212000     371.6338    21.291682    284037.27    1.1444216 
  213000    371.41226   -8.2775562    284839.86     1.141197 
  214000    371.69378    30.069697    282996.13    1.1486319 
  215000    364.79209   -9.6347504    282012.08    1.1526399 
  216000    366.58538     1.858985    283550.88    1.1463847 
  217000    385.09105    1.3409163    283786.84    1.1454315 
  218000    354.19568    10.884396    285028.72    1.1404408 
  219000     384.4657     88.76776    281927.55    1.1529855 
  220000    380.62837    6.6399193    285055.76    1.1403326 
  221000    355.82825   -34.874056    285126.93     1.140048 
  222000    392.83834    7.3443057    282076.46    1.1523769 
  223000    369.92816    67.781672    278312.75    1.1679608 
  224000    383.27057    7.7963399    282931.47    1.1488944 
  225000    365.63212    114.80661    276571.62    1.1753136 
  226000     371.3383   -5.4025687    282850.32     1.149224 
  227000    381.13673    10.156845    285937.54     1.136816 
  228000    385.12325   -10.068155    289895.58    1.1212947 
  229000    368.22558    8.5722121    288903.03     1.125147 
  230000    361.88311   -75.079239    291103.34    1.1166426 
  231000    376.66941   -7.2451214    284732.41    1.1416276 
  232000    367.78306    67.941331    281202.21    1.1559595 
  233000    360.73055    8.1764139    285267.91    1.1394846 
  234000    376.94229    5.2464704    285800.43    1.1373614 
  235000    367.37684    16.400385    284785.23    1.1414159 
  236000    374.88649     6.180912    286880.42    1.1330797 
  237000    337.99838   -49.703981    289362.67    1.1233598 
  238000    370.49981   -32.619222    287179.41       1.1319 
  239000    377.51754     6.498057     287163.9    1.1319611 
  240000    380.57915   -71.921457    293306.11    1.1082564 
  241000     364.8526    12.740578    288729.21    1.1258244 
  242000    375.20936   -10.721262    290635.07    1.1184417 
  243000    360.59257    71.931226    285903.46    1.1369515 
  244000    377.39604    18.313447    284802.98    1.1413447 
  245000     367.7258    10.215338    284211.14    1.1437215 
  246000    371.73061   -32.159919    285026.06    1.1404514 
  247000    383.05349     2.103566     283864.6    1.1451177 
  248000     374.1937    15.606226    282514.01    1.1505921 
  249000    352.54946   -17.586103    284328.43    1.1432496 
  250000    373.23247    4.4596156     285933.6    1.1368317 
  251000    365.83208    75.651389    283777.38    1.1454697 
  252000    376.88436    12.411001     281721.6    1.1538284 
  253000    363.81737   -30.646499    285346.43     1.139171 
  254000    390.42132     22.08288    284482.02    1.1426324 
  255000    375.12647   -3.1588742    284227.53    1.1436555 
  256000    357.23303   -52.507778    286878.03    1.1330891 
  257000     378.3958    3.1124481    288056.02    1.1284554 
  258000    381.09649   -107.88333    294306.69    1.1044886 
  259000    358.11149    5.3751842    286663.92    1.1339354 
  260000    375.51364   -37.878533    287860.57    1.1292216 
  261000    381.05837    18.763024    286093.38    1.1361968 
  262000    376.98455    18.089021    289288.17    1.1236491 
  263000    374.78398    17.810876    289158.94    1.1241512 
  264000    373.57651   -8.8685692     288398.6     1.127115 
  265000    369.35579   -109.72002    293399.17    1.1079049 
  266000    375.91267    5.5817339    290877.75    1.1175086 
  267000    371.12601   -18.994739    289840.63    1.1215073 
  268000    393.83111   -9.2227421    292368.48    1.1118106 
  269000    368.07476     31.17633    291302.05    1.1158809 
  270000    366.34509     7.120399    294909.02    1.1022328 
  271000    377.01392   -7.0238164     291821.8    1.1138934 
  272000    356.66062    18.281959    289768.55    1.1217863 
  273000    376.45241    9.7191311    293095.75    1.1090519 
  274000    383.21658    14.841561    292577.04    1.1110181 
  275000    360.48872    -55.52228    292015.14    1.1131559 
  276000    381.51348   -2.3089161    288315.68    1.1274391 
  277000    357.69431    36.217988    286817.16    1.1333296 
  278000    377.55409    35.813212    288582.08    1.1263983 
  279000    388.60123    10.927815    288786.88    1.1255995 
  280000    366.82304    11.705227    287451.96    1.1308268 
  281000    381.82878   -1.2909218    291732.02    1.1142362 
  282000     369.6601   -19.767719     288677.3    1.1260268 
  283000    355.90963   -11.433986    287585.92    1.1303001 
  284000    360.05079    9.5910647    287349.02    1.1312319 
  285000    361.30906    57.706336    285695.02     1.137781 
  286000    372.43364    8.9153399    292758.28    1.1103303 
  287000    362.75756   -20.617237    295429.59    1.1002905 
  288000    357.76183   -4.5227166    292446.64    1.1115135 
  289000    391.69757     -1.29021    290405.85    1.1193245 
  290000    359.20101   -42.178313    290199.33    1.1201211 
  291000     355.5123   -6.3679395    288356.87    1.1272781 
  292000    373.83186  -0.86941225    286535.17     1.134445 
  293000    365.54637    3.6629295    290701.55    1.1181859 
  294000    372.62715     23.04643    291957.43     1.113376 
  295000    370.05066   -5.3591325    291295.25    1.1159069 
  296000    370.09533    26.830666    289227.65    1.1238842 
  297000    372.20385    14.963054       287274    1.1315273 
  298000    378.31598   -4.9744864    289181.71    1.1240627 
  299000    372.03716   -21.872564    285771.54    1.1374764 
  300000    359.65266    12.241227     286799.7    1.1333986 
  301000    364.48228    3.8420903    287644.75    1.1300689 
  302000     384.5583     7.569813    289155.69    1.1241639 
  303000    364.10691    11.222917    289468.41    1.1229494 
  304000    376.01193   -24.107377    290576.76    1.1186661 
  305000    368.21561    15.292682    284056.24    1.1443451 
  306000    379.40789   -17.771485    287220.89    1.1317365 
  307000    371.71458    2.4621067    287836.58    1.1293158 
  308000    375.55852    40.880225    286291.17    1.1354118 
  309000    376.88578   -6.1122238    287032.52    1.1324793 
  310000     350.1439    18.114687    285339.79    1.1391975 
  311000    371.46436   -8.1036772    287811.81    1.1294129 
  312000    374.80652   -87.281678    294043.01     1.105479 
  313000    365.30883    6.7130432    289691.16     1.122086 
  314000    391.88402    39.990079    285822.34    1.1372742 
  315000    369.15613   -8.9862918    289005.49    1.1247481 
  316000    379.50093    37.537006    286432.05    1.1348534 
  317000    368.96491   -19.807147    287300.97    1.1314211 
  318000     381.4525   -12.534774    288157.01    1.1280599 
  319000    386.23042   -50.524612    289996.57    1.1209042 
  320000    376.91972    10.753827    290110.05    1.1204658 
  321000    356.47219   -32.452475    290670.31    1.1183061 
  322000    386.16645   -11.135708    289724.64    1.1219563 
  323000     391.3971   -12.701605     286158.5    1.1359382 
  324000    355.15594   -28.095951    290521.04    1.1188807 
  325000    378.21962   -7.6287912    288473.08     1.126824 
  326000     370.6603   -98.687973    291588.43    1.1147849 
  327000    380.66286   -9.8585434    288153.74    1.1280727 
  328000    363.48216   -19.558043    286509.77    1.1345455 
  329000    374.99047    31.389921    284942.48     1.140786 
  330000    366.13054   -5.9416506    283574.96    1.1462873 
  331000    381.09566  0.089575865    285461.37    1.1387123 
  332000    374.12434    3.6756936    285698.24    1.1377682 
  333000    375.10808   -10.466614     286323.7    1.1352828 
  334000    377.95888    13.279689    285050.63    1.1403531 
  335000    371.46045   -1.2998355    287520.41    1.1305576 
  336000    391.09869    123.80086    283489.53    1.1466328 
  337000    385.29821   -1.6872897     288526.1    1.1266169 
  338000    357.29941   -12.535522    288763.09    1.1256923 
  339000    374.16375    -22.56368     286647.2    1.1340016 
  340000    393.84828     6.831324    287962.71    1.1288211 
  341000    363.71877    111.76082     280991.5    1.1568264 
  342000    380.55326   -8.9853297     284761.8    1.1415098 
  343000    361.86293   -46.405245    286951.63    1.1327985 
  344000    378.04111   -5.0018645    284277.36     1.143455 
  345000    368.24279    14.703972    282774.02    1.1495341 
  346000    401.18995    24.696701    285928.05    1.1368538 
  347000     366.4715    7.9414289    287960.52    1.1288297 
  348000    380.00473   -19.156553     288020.9     1.128593 
  349000    365.86178   -6.9368874     288416.3    1.1270458 
  350000    385.12964   -77.493019    290403.76    1.1193325 
  351000    345.97766     9.994827    285678.22    1.1378479 
  352000    365.06319    9.7958666     284071.8    1.1442825 
  353000     379.0438    11.999083    280885.84    1.1572615 
  354000    364.17677   -35.255088     281864.5    1.1532434 
  355000    379.95535   -20.080769    283937.42     1.144824 
  356000    364.69918    14.790066    285286.71    1.1394095 
  357000    389.71851    36.787134    286336.68    1.1352314 
  358000    340.19193    3.7051349    285258.96    1.1395203 
  359000     376.3645    36.178552    284661.45    1.1419122 
  360000    376.60327    2.7756086    287973.82    1.1287775 
  361000    378.31404    15.034787     286177.2     1.135864 
  362000    371.96658   -3.0101122    286429.56    1.1348633 
  363000    379.59902   -65.902806    286721.95    1.1337059 
  364000    364.04075   -8.7427455    282942.24    1.1488507 
  365000    373.67592   -54.863863    286364.46    1.1351213 
  366000    377.70825   -6.7975478    283418.11    1.1469217 
  367000    363.78566    15.560988    283022.28    1.1485258 
  368000    382.39474    34.441655    283008.29    1.1485825 
  369000    360.22603     11.44712    282391.53    1.1510911 
  370000    368.46587   -40.733133    284362.34    1.1431133 
  371000    373.72192    9.1942545    281993.72     1.152715 
  372000    382.07595    -6.359523    285854.21    1.1371474 
  373000    373.22723 -0.072446356    287607.71    1.1302144 
  374000    373.41353    17.491139    285994.15     1.136591 
  375000    373.25083   -29.752232    287960.33    1.1288304 
  376000    377.08004   -3.8463963    287192.57    1.1318481 
  377000    367.80947    122.93502    282618.31    1.1501674 
  378000      362.811   -9.8699815    289137.07    1.1242363 
  379000    379.52699     29.40848    286465.68    1.1347201 
  380000    367.77425   0.12425329    286152.26     1.135963 
  381000    374.00729    9.4583496    287116.94    1.1321463 
  382000    355.40711    -60.43545    290716.29    1.1181292 
  383000    372.11388     2.936562     289411.9    1.1231687 
  384000     361.8224   -84.734561    291191.51    1.1163045 
  385000    378.28495   -1.9135316    287621.93    1.1301585 
  386000    383.12406    -41.80736    289109.43    1.1243437 
  387000    366.74615   -2.3499836    285573.77    1.1382641 
  388000    368.60063   -15.385873    283057.13    1.1483843 
  389000    382.29403    63.639168     283670.7    1.1459005 
  390000    380.60323    1.9013092    283025.46    1.1485129 
  391000    378.94361    79.327046    278237.19     1.168278 
  392000      362.376    9.7595686    281907.89    1.1530659 
  393000    385.43425    13.599958    283034.97    1.1484743 
  394000    370.70503    5.8280829     284010.2    1.1445307 
  395000    362.34084    21.089729    285526.71    1.1384518 
  396000    355.04986    13.502662    280705.47    1.1580052 
  397000    385.79876   -17.086715    281854.21    1.1532855 
  398000    367.59334    24.103055    281262.92      1.15571 
  399000    377.12033   -2.3099118    284902.11    1.1409476 
  400000    377.25128    -3.700907    284826.78    1.1412494 
  401000    371.91815   -11.477073    286947.96     1.132813 
  402000    366.88487    49.473538    284391.79    1.1429949 
  403000    373.32012    11.020581     287507.7    1.1306076 
  404000    372.28055     101.2683    284824.24    1.1412595 
  405000     364.7315    3.7293937    287039.16    1.1324531 
  406000    374.71108    6.4658649    284300.74     1.143361 
  407000    352.88013   -12.392132    284600.79    1.1421556 
  408000    383.11467   -7.6939306    284860.12    1.1411158 
  409000    368.37274   -89.716087    289331.44     1.123481 
  410000    364.97038   0.68466957    287318.45    1.1313523 
  411000    387.07538    4.8805854    286546.96    1.1343983 
  412000     370.3816    46.543598    284090.04     1.144209 
  413000    374.68465   -9.4082482    285710.71    1.1377186 
  414000    359.13668   -83.266371    292657.21    1.1107137 
  415000    388.83646  -0.57750312    287254.29     1.131605 
  416000    361.99515   -5.9387499    284141.25    1.1440028 
  417000    378.33091   -13.738063    285562.01     1.138311 
  418000     368.9574   -18.002845    284506.68    1.1425334 
  419000     370.1513   -31.474954    285502.38    1.1385488 
  420000    362.78043  -0.75289419    284809.81    1.1413174 
  421000    389.88938    82.555829    281511.53    1.1546894 
  422000     375.6976   0.46178654    285733.51    1.1376278 
  423000    375.21298    80.712088    283137.96    1.1480565 
  424000    369.11636    16.476998    288061.47    1.1284341 
  425000    388.19648   -15.009537    291916.78     1.113531 
  426000    369.67046    72.341087    285763.88    1.1375069 
  427000    380.70059   -2.4488666    285337.83    1.1392053 
  428000    361.67263    10.929615    282897.39    1.1490328 
  429000    376.93761    2.6659502    281993.08    1.1527176 
  430000     367.7188   -1.1672692    281139.79    1.1562162 
  431000    379.00679   -11.057958    283112.72    1.1481589 
  432000     373.6425   -24.144215    283979.06    1.1446562 
  433000    380.64767   -12.006427    285699.92    1.1377615 
  434000    359.72696    -16.67226    284023.38    1.1444775 
  435000    374.64363   -66.708254    286778.11    1.1334839 
  436000    375.05944  -0.96972439    283301.29    1.1473946 
  437000    364.02883    7.0391585    286332.04    1.1352498 
  438000    379.84718   -27.159816    287446.87    1.1308468 
  439000    358.24691   -11.183266    286080.74     1.136247 
  440000    378.89704    23.663446     285934.4    1.1368285 
  441000    366.26447   -14.164382    286695.56    1.1338103 
  442000    378.94403    7.3802465    285465.35    1.1386964 
  443000    366.31703    9.5314847    287176.52    1.1319114 
  444000    352.81405     28.06302    282809.59    1.1493895 
  445000    387.83245    11.379129    283307.97    1.1473676 
  446000     364.0258     63.36657    281613.33     1.154272 
  447000     386.5593    2.7800591    283469.93     1.146712 
  448000    362.17907   -3.2980196    286278.19    1.1354633 
  449000    380.14691    76.693069    281670.07    1.1540395 
  450000    371.77378    17.806025    286072.85    1.1362784 
  451000    377.47719    4.5407758    283926.77     1.144867 
  452000    381.23333   -107.79476    289774.89    1.1217617 
  453000    360.38057    -14.21919    284869.78    1.1410771 
  454000    389.76938    15.954901    285319.33    1.1392792 
  455000    372.17887   -106.18378    291185.96    1.1163257 
  456000    370.28796    15.965577    287097.88    1.1322214 
  457000    364.10083   -14.795133    287609.89    1.1302059 
  458000    368.09943   -25.063954    291061.43    1.1168034 
  459000    387.78928    6.5256561     288621.2    1.1262457 
  460000    376.64361   -4.0087086     290246.7    1.1199382 
  461000    366.11394    46.547874    287612.47    1.1301957 
  462000    378.60608   -6.1134536    288375.64    1.1272047 
  463000    370.74061    121.26731    282958.85    1.1487832 
  464000    363.29397   -8.8492772    291693.81    1.1143822 
  465000    383.16523    33.054733    288133.41    1.1281523 
  466000    369.76868    -4.900067    289819.64    1.1215885 
  467000    383.38614   -3.4885991     291378.4    1.1155885 
  468000    361.64905     34.10565    287271.84    1.1315358 
  469000    382.38711   -4.0122817    288104.42    1.1282659 
  470000    370.64828    -42.89209    289997.19    1.1209018 
  471000    367.82767    3.1988932    289904.88    1.1212587 
  472000    353.73549      67.3922     285834.8    1.1372247 
  473000    380.32542   -4.3571103    288737.02    1.1257939 
  474000    375.05626   -20.411911    286980.51    1.1326845 
  475000    352.51586    -10.12579    284337.78    1.1432121 
  476000    381.23423   -13.187235     287783.8    1.1295229 
  477000    361.75381   -6.7813377    284556.64    1.1423328 
  478000    390.15495  -0.13783822    286577.64    1.1342768 
  479000     352.3498   -101.10875    289367.32    1.1233417 
  480000    381.19414    3.1392385    285284.32     1.139419 
  481000    407.08683   -40.873552     287533.5    1.1305061 
  482000    363.02953   -8.1100571    284597.99    1.1421668 
  483000    383.67477    23.046589    283047.69    1.1484226 
  484000    356.68347    40.610203    282324.51    1.1513644 
  485000    385.17169    4.9997118    283540.49    1.1464267 
  486000    362.21128    98.460341    282217.66    1.1518003 
  487000    392.08917   -8.6934217    286419.35    1.1349037 
  488000    357.57588   -6.3475088    284615.35    1.1420972 
  489000    357.83562   -17.567902    282737.24    1.1496836 
  490000    375.94867     13.03251    284539.46    1.1424018 
  491000    355.13845     76.17716    284109.66      1.14413 
  492000    365.57108   -2.4210622    285255.59    1.1395338 
  493000    385.55249   -10.361609    286503.99    1.1345684 
  494000    365.92977    20.767271     286092.7    1.1361995 
  495000    379.29172    11.256444    287609.06    1.1302091 
  496000    349.97098   -1.8972805    285834.99    1.1372239 
  497000    390.88678    10.410714    283651.11    1.1459796 
  498000    364.28702   -5.3251388     284378.3    1.1430492 
  499000     375.5906    9.9664864    284252.75     1.143554 
  500000    374.88154    6.2244215     286694.9    1.1338129 
  501000    362.86272    47.092138    284789.02    1.1414007 
  502000     389.3854    10.729796    287124.33    1.1321172 
  503000    364.95939    -13.53001    283669.16    1.1459067 
  504000    360.46697   -3.6857483    283566.43    1.1463218 
  505000     386.6855     30.54114    283080.73    1.1482886 
  506000    358.62538   -2.1873658    281405.28    1.1551254 
  507000    375.87497    14.270632    282387.31    1.1511083 
  508000    364.02334    -2.364743    283816.17    1.1453131 
  509000    375.05997   -7.9529651    287165.82    1.1319536 
  510000    357.40035   -103.78044    293790.48    1.1064293 
  511000    379.39784    5.5159692    286918.09    1.1329309 
  512000    377.62852   -61.776853    287375.12    1.1311292 
  513000    357.75723    16.223388    282835.76    1.1492832 
  514000    390.44975    10.036156    284558.63    1.1423248 
  515000    355.80514    -44.76268       285599    1.1381636 
  516000    382.55444   -8.7181479    285483.84    1.1386227 
  517000    375.34247    113.43027     285951.4    1.1367609 
  518000    378.42798   -2.4671102    287280.93    1.1315001 
  519000    369.90657    28.328569    286241.13    1.1356103 
  520000     381.3766    6.5669283     288931.2    1.1250373 
  521000    366.30048    16.273473     288325.7       1.1274 
  522000    378.21793   -28.531764    292095.91    1.1128481 
  523000    366.67616   -1.8015447    287155.65    1.1319937 
  524000    370.19933   -62.737814    293657.85     1.106929 
  525000    380.57761   -6.1110487    292207.43    1.1124234 
  526000    370.97197   -37.760849    292806.59    1.1101471 
  527000    378.31505   -1.7818562    286140.91    1.1360081 
  528000    406.04305    55.831888    286167.57    1.1359022 
  529000    371.45588   -4.1286156    289681.43    1.1221237 
  530000    367.07444   -55.040621    294345.73    1.1043421 
  531000    380.97156   -8.7190734    291962.92     1.113355 
  532000    368.12182   -12.047593    292152.12     1.112634 
  533000    374.04099    5.2527489    289406.33    1.1231903 
  534000    369.63369    -106.0657    295788.32    1.0989561 
  535000    356.12342    8.2466772    289695.46    1.1220693 
  536000     390.1402    89.687807    284285.39    1.1434227 
  537000    371.88727    8.4136725    287934.74    1.1289307 
  538000    360.80081     6.611475     286283.2    1.1354434 
  539000    372.07142   -7.1162687    287558.72     1.130407 
  540000    369.19788    56.642706    281134.89    1.1562363 
  541000    381.49693     12.12342    280893.41    1.1572303 
  542000    374.40181   -25.064624    282819.19    1.1493505 
  543000     373.0162    16.071996    282875.02    1.1491237 
  544000    378.35134    25.790072    282127.34     1.152169 
  545000       349.76   -16.312788    285522.07    1.1384702 
  546000    364.75017    18.875907    285487.04      1.13861 
  547000    383.36898   -26.836623    285210.78    1.1397128 
  548000    360.89806    1.6515554    281065.27    1.1565228 
  549000    396.40918   -43.192897    285414.83     1.138898 
  550000    360.87071   -4.2966151    283430.16    1.1468729 
  551000    384.02645   -4.2524549    284919.74     1.140877 
  552000    368.07111    9.6178579    283592.22    1.1462176 
  553000    364.39031   -17.855092    287131.95    1.1320871 
  554000    373.45863    7.8658151    284461.27    1.1427158 
  555000    386.49234    74.213947    282349.47    1.1512626 
  556000    379.14202    8.9737263    285433.51    1.1388235 
  557000    361.45924    64.322309    285624.39    1.1380624 
  558000    362.97625   -8.7318791    287177.12     1.131909 
  559000    383.09706   -58.916852    290829.99    1.1176921 
  560000    347.36688    1.0954978     284025.4    1.1444694 
  561000    374.96512   -62.660575    287551.57    1.1304351 
  562000    367.37379    4.3499339    285556.84    1.1383316 
  563000    375.15835   -105.21831    290331.92    1.1196095 
  564000    368.14532    2.5393892    286024.63    1.1364699 
  565000    371.14549   -101.10139    287849.05    1.1292668 
  566000    369.86712   -6.9029059    283269.46    1.1475236 
  567000    379.89952    42.467486    282154.73    1.1520572 
  568000    366.57638   -5.5278684    284003.74    1.1445567 
  569000    368.92582   -1.0539165    285450.57    1.1387554 
  570000    373.62103   -57.330319    290683.59     1.118255 
  571000    371.58097       6.9883    287660.49     1.130007 
  572000    392.74553    20.421865    284733.54    1.1416231 
  573000    375.99389    37.530815    282740.34    1.1496711 
  574000    370.94354    2.2872471     285473.4    1.1386644 
  575000    379.33778   -52.891792    287698.73    1.1298569 
  576000    369.94164     2.298834    283526.24    1.1464843 
  577000    371.92578    13.172971    284978.69     1.140641 
  578000    372.47545   -90.285896    289877.57    1.1213644 
  579000    377.75655   0.76420141    287388.74    1.1310756 
  580000    380.09525   -3.8830642    286649.89    1.1339909 
  581000    363.72933   -2.7906294    287056.09    1.1323863 
  582000    377.59499    -6.605718    285328.02    1.1392445 
  583000    361.16826    87.411729    280535.22    1.1587079 
  584000    359.57133   -2.6265083    286021.58     1.136482 
  585000    371.81649   -6.5919084    284806.23    1.1413317 
  586000    378.86763   -45.896874    285181.15    1.1398312 
  587000    369.59478     8.946327    278724.67    1.1662347 
  588000    379.27653     97.73266    276932.58    1.1737816 
  589000    373.35001    11.542527       285569    1.1382831 
  590000     390.3837    10.223947    285449.11    1.1387612 
  591000    384.00173    127.36857    281191.57    1.1560033 
  592000    362.80532   -3.9681198    285192.85    1.1397845 
  593000       388.76 -0.083675668    284676.16    1.1418532 
  594000    361.21905    -12.00683    287254.45    1.1316044 
  595000    387.50336    9.9861594    286250.32    1.1355739 
  596000    348.68304    5.4926182    285414.36    1.1388999 
  597000    390.26057    24.867663    286236.65    1.1356281 
  598000    371.25477    16.724285    289598.21    1.1224461 
  599000    354.51853   -2.4585085    285471.22    1.1386731 
  600000     387.3748   -15.696983    285625.84    1.1380566 
  601000    356.11165    90.273164    282449.45    1.1508551 
  602000    395.38858    11.314657    286723.09    1.1337014 
  603000    370.36004     5.980923    285829.78    1.1372446 
  604000    375.85083    38.843119     287929.1    1.1289529 
  605000    369.40895    -55.48056    292829.95    1.1100585 
  606000    371.06726    9.0181325    289014.46    1.1247132 
  607000    375.87627    6.6028169    287625.56    1.1301443 
  608000    370.65959    10.233137    286807.37    1.1333683 
  609000    378.85981    73.482404    282562.24    1.1503957 
  610000     370.9479   -10.255691     286142.7     1.136001 
  611000    366.05384    7.2548219    285350.73    1.1391538 
  612000    394.60519    -9.490751    289242.61     1.123826 
  613000    366.34292   -114.34965    292986.93    1.1094638 
  614000    372.32743   -4.5708411    286857.58    1.1331699 
  615000    366.92218   -3.6808697    284472.34    1.1426713 
  616000    375.44428    13.588272    284238.05    1.1436132 
  617000    371.18594   -100.43136    288225.05    1.1277937 
  618000    360.07727    12.561232    282725.12    1.1497329 
  619000    370.37087   -6.2405956     283618.7    1.1461105 
  620000    377.61729  -0.40425022    286931.47    1.1328781 
  621000    368.08462    58.748522    285098.14    1.1401631 
  622000    356.52572    20.790793    287390.01    1.1310706 
  623000    382.58173   -2.1001759    285767.93    1.1374908 
  624000    365.62401   -20.322264    288432.53    1.1269824 
  625000    382.72393   -37.644548    288363.54     1.127252 
  626000    377.98728    2.7890641    285762.54    1.1375122 
  627000    369.18584    17.135709    284239.72    1.1436065 
  628000    379.20272   -17.060924    285905.84    1.1369421 
  629000    377.27227   -6.5025046    286742.66    1.1336241 
  630000    367.48484     69.30477    282283.74    1.1515307 
  631000     381.5602    25.977985    283703.49     1.145768 
  632000     363.3469    5.8944625    282339.39    1.1513037 
  633000     393.9215   -32.956978    286935.77    1.1328611 
  634000    358.77019   -17.945415    288218.53    1.1278192 
  635000    372.08157    7.4949087     285546.5    1.1383728 
  636000    374.40904   -28.474662    291175.58    1.1163655 
  637000    362.48069   -45.069737    291056.82     1.116821 
  638000    374.25304    -6.007039    290185.47    1.1201746 
  639000    362.37455   -3.0947237    287531.97    1.1305121 
  640000    376.75929   -30.581613     289924.1    1.1211844 
  641000    366.71675   -6.4913979    287784.51    1.1295201 
  642000    378.73803    44.348154     284239.2    1.1436086 
  643000    367.12483   -32.908532    286732.53    1.1336641 
  644000      388.759   -6.1865452    285319.37    1.1392791 
  645000    372.77419    3.8841441    286684.41    1.1338544 
  646000    378.75195    19.161069    287543.45     1.130467 
  647000    341.35756    3.8290341    290133.55     1.120375 
  648000    359.53028   -5.9460409    291215.51    1.1162124 
  649000     383.8016     36.09164    289159.54    1.1241489 
  650000    363.65639    -19.24577    290667.62    1.1183164 
  651000    376.00699   0.85428183    290200.96    1.1201148 
  652000    367.52975    12.690057    288667.62    1.1260646 
  653000    367.68464    69.936886    287312.86    1.1313743 
  654000    379.06421   -7.5568145    292340.56    1.1119168 
  655000    365.52995   -8.7051401    291166.18    1.1164016 
  656000    369.10341    126.82725    283989.71    1.1446132 
  657000    366.19767    8.9086854    288201.26    1.1278868 
  658000    377.87133   -11.818119    289790.26    1.1217022 
  659000    365.13511   -80.042904    293032.26    1.1092921 
  660000    387.09936   -6.6564494    289740.19    1.1218961 
  661000    364.55996    14.156047    289944.29    1.1211063 
  662000    356.74317   -100.25817    293909.73    1.1059803 
  663000    381.38258   -1.2299623    288196.24    1.1279064 
  664000      359.459   -2.4729593    291506.79    1.1150971 
  665000     389.0246   -90.610958    294136.02    1.1051295 
  666000     373.9588   -9.7178309     287296.2    1.1314399 
  667000    373.98619   -7.5714424    285761.51    1.1375163 
  668000    361.71224   -83.915618    290126.59    1.1204019 
  669000    355.05866    13.598078    286065.53    1.1363074 
  670000    388.03236    -3.776071    288505.05    1.1266991 
  671000    369.23595    113.46397     284862.4    1.1411067 
  672000    369.98692   -2.1265527    292397.27    1.1117011 
  673000    380.81593    4.6561982    293642.29    1.1069876 
  674000     368.9408    8.4524438    292486.05    1.1113637 
  675000    382.50577   -10.977298    293662.02    1.1069133 
  676000    362.26943   -50.311023    296827.94    1.0951071 
  677000    388.42921   -4.9137598    294549.88    1.1035767 
  678000      357.342    -97.92475    298185.05     1.090123 
  679000    387.23574   -4.8358895    295148.67    1.1013378 
  680000    364.44381   -1.7874029    288932.01    1.1250341 
  681000    375.10774    16.920441    284332.63    1.1432328 
  682000    375.87954    17.792234    283755.56    1.1455577 
  683000    375.01195    39.761973    283606.36    1.1461604 
  684000    386.69003   -1.4107971    285220.85    1.1396726 
  685000    374.75837    69.100405    283890.48    1.1450133 
  686000     385.7086   -5.4832435    286871.28    1.1331158 
  687000    364.18947    -20.87027    288405.17    1.1270893 
  688000    391.65758   -8.2605596    290266.34    1.1198625 
  689000    373.89521    8.7231153    286847.06    1.1332115 
  690000    367.61546    25.489887    285978.29     1.136654 
  691000    370.36105   -8.0828329    287751.82    1.1296484 
  692000    388.34093   -83.484418    290444.92    1.1191739 
  693000    368.11369    2.2706483    286111.02    1.1361267 
  694000    369.68566   -74.471186    289358.07    1.1233776 
  695000    378.37289    9.3442943    285988.35    1.1366141 
  696000     366.6531    -23.66247    288895.07     1.125178 
  697000    369.27833    18.438865    284189.37    1.1438091 
  698000    374.28898   -4.9137418     284510.5     1.142518 
  699000    373.15289   -101.26038    287195.14     1.131838 
  700000    377.32384    7.2428279    281153.05    1.1561617 
  701000    366.80563    34.490624    282678.29    1.1499234 
  702000    378.68444    13.213735     284483.7    1.1426257 
  703000    390.98126   -5.3514329    285104.68     1.140137 
  704000    361.29768    -15.28511    284195.91    1.1437828 
  705000    361.22232   -11.177308    285631.76     1.138033 
  706000    385.51094  -0.43244128     289225.1    1.1238941 
  707000    355.20877    19.535135    287967.17    1.1288036 
  708000    375.11911    5.0455574    286985.67    1.1326641 
  709000    377.21754    8.0097355    285972.14    1.1366785 
  710000    364.18587   -22.822335    288961.86    1.1249179 
  711000    387.67153    4.8560457    287051.65    1.1324038 
  712000    377.99723    4.7110978    284356.98    1.1431349 
  713000    373.11978   -13.651015    286666.62    1.1339248 
  714000    359.03261   -3.6112163    285420.65    1.1388748 
  715000    385.27087   -25.486708    287986.03    1.1287297 
  716000    374.14888    17.845128    283237.87    1.1476516 
  717000     372.9868    4.9970391    284941.83    1.1407886 
  718000    387.66839    21.386578    284560.77    1.1423162 
  719000    364.57283   -13.762722    286599.09    1.1341919 
  720000    377.51216   -8.2363798     285120.8    1.1400725 
  721000    370.14939   -67.962056    287077.15    1.1323032 
  722000    386.02777   -7.4025504     285449.8    1.1387585 
  723000    383.85371    43.427731       286133    1.1360395 
  724000    362.68028    4.4608037     288033.2    1.1285448 
  725000    371.70754   -11.576424    288951.77    1.1249572 
  726000     390.7891    8.1267929    286704.28    1.1337758 
  727000    354.91081    -2.310363     286836.4    1.1332536 
  728000    375.32538    39.645378    284392.26    1.1429931 
  729000    357.72655    21.050304     286834.5    1.1332611 
  730000    382.43936   -8.9369887    284928.04    1.1408438 
  731000     359.3448    -29.42201    286268.84    1.1355004 
  732000    377.20607    8.2584439    287921.02    1.1289845 
  733000    361.75348    55.887466    289377.34    1.1233028 
  734000    358.61421    8.8267267    290155.39    1.1202907 
  735000     386.7984 -0.090633129    293208.65    1.1086248 
  736000    376.82449    11.097253    291889.22    1.1136361 
  737000    373.91033   -6.2233568    289295.55    1.1236204 
  738000    356.95998    41.533526    288055.43    1.1284577 
  739000    388.82161    11.475686    287604.15    1.1302284 
  740000    372.96832   -6.8301004    289776.73    1.1217546 
  741000    372.20223    1.0649724    289305.14    1.1235831 
  742000    389.82675    26.166262    289013.82    1.1247157 
  743000    380.18477    11.171795    289271.63    1.1237133 
  744000    379.68581   -2.2530412    289243.84    1.1238213 
  745000    348.51139   -26.156965    289713.74    1.1219985 
  746000    374.55734    9.8407481    286771.75    1.1335091 
  747000    387.46458   -92.207961    293571.72    1.1072537 
  748000    365.89475   -6.7013341    291661.25    1.1145066 
  749000    380.45588    57.848083    288482.93    1.1267855 
  750000    366.23046    9.3006154    287785.83    1.1295149 
  751000     374.6699   -9.1695102    289319.45    1.1235276 
  752000    369.36679   -76.629325    290570.07    1.1186919 
  753000    390.32531    8.9486067    287212.51    1.1317696 
  754000    359.05802    -14.61892    288101.73    1.1282764 
  755000    382.32394    15.128643    287093.09    1.1322403 
  756000    366.00013   -8.4285207    287579.75    1.1303243 
  757000    368.75795   -46.724847    287863.36    1.1292107 
  758000    382.46851   -6.7826844    286533.44    1.1344518 
  759000    364.68461    7.6255273    287457.79    1.1308039 
  760000    388.43292    23.206806    288148.18    1.1280945 
  761000    386.01607   -8.1091128    289653.15    1.1222332 
  762000    363.57537   -32.543985    292434.06    1.1115613 
  763000    385.20594   -6.6552044    289101.89    1.1243731 
  764000    374.31289    24.328536    287534.42    1.1305025 
  765000    377.01549    1.1983581    290478.85    1.1190432 
  766000    364.66555    49.070702    288918.09    1.1250884 
  767000    368.13649   -13.463992    289937.68    1.1211319 
  768000    363.40241   -7.0143529    288127.29    1.1281763 
  769000    386.46912    51.304152     285631.1    1.1380357 
  770000     363.1367    7.5188515    285352.26    1.1391477 
  771000    379.06886   -37.058753     287639.4    1.1300899 
  772000    358.03399   -6.9144684    285235.96    1.1396122 
  773000    375.30532     2.586136    282963.89    1.1487628 
  774000     364.0934   -79.498956    285388.37    1.1390036 
  775000    358.67684    -17.66189    286481.79    1.1346563 
  776000    390.08194    3.1100568    283744.98    1.1456005 
  777000    364.04194   -35.142222    284613.22    1.1421057 
  778000     378.6208   -22.348475    284754.07    1.1415408 
  779000    365.92138    8.4714361    279490.03    1.1630411 
  780000    376.23986    40.082681     277479.9    1.1714664 
  781000     365.1699    34.529165     280496.2    1.1588691 
  782000    385.65993     7.710586    283359.84    1.1471576 
  783000    354.43272    37.729472    280127.08    1.1603961 
  784000    379.20819   -10.742926    281963.49    1.1528386 
  785000    363.65822    1.1851264    280414.89    1.1592051 
  786000    396.79605    15.984406    283609.34    1.1461484 
  787000    372.64994    14.870639    284214.84    1.1437066 
  788000    373.63041   -5.2105127    285274.92    1.1394566 
  789000    358.24923    -7.161331    282882.32     1.149094 
  790000    384.78035     57.55041    279164.36    1.1643979 
  791000    357.05229   -3.7593913    281893.06    1.1531266 
  792000    362.52822    2.4955561    286060.29    1.1363282 
  793000    395.42386   0.93786798     287663.9    1.1299937 
  794000    377.27947    -12.01592    288066.36    1.1284149 
  795000    381.97814    24.217516    288013.26     1.128623 
  796000    370.73207   -2.1185702    289970.59    1.1210046 
  797000    378.22859    -12.64308    288763.62    1.1256902 
  798000    375.56794    4.7138501    290608.89    1.1185425 
  799000    359.77163   -4.8433793    290372.55    1.1194528 
  800000     381.4555    5.6392108    290012.59    1.1208423 
  801000    362.80082   -54.231416    293175.05    1.1087519 
  802000    378.90022   -6.9785276    293745.14       1.1066 
  803000    376.58328   -1.9742535    291884.44    1.1136544 
  804000    357.42165   0.61585081    290451.21    1.1191497 
  805000    381.37927    32.272742    288638.21    1.1261793 
  806000    358.03622   -6.2368958    288433.25    1.1269796 
  807000    383.61022   -10.026775    289034.94    1.1246335 
  808000     381.0074   -101.00964    292852.78     1.109972 
  809000    357.48522   -4.8324997     286637.5      1.13404 
  810000     375.2259    4.3690052    283259.38    1.1475644 
  811000    344.29752   -51.097629    285787.97     1.137411 
  812000    375.16139    17.147318     284012.8    1.1445202 
  813000    356.29952  -0.22500225    284024.19    1.1444743 
  814000     387.0049     2.538812    281557.98    1.1544989 
  815000    370.48936    55.840162    280666.12    1.1581675 
  816000    350.69639   -12.550058    282967.73    1.1487472 
  817000    378.45108   -2.7860715    286030.59    1.1364462 
  818000    360.30872   -27.848719    288263.49    1.1276433 
  819000    375.15926   -85.681178    292463.52    1.1114493 
  820000    369.75713   -4.4415516    285653.12    1.1379479 
  821000    363.48878    7.4680581    289144.38    1.1242079 
  822000    396.94887    27.059668    287019.34    1.1325313 
  823000    375.75986    32.497197    287593.64    1.1302697 
  824000    381.84758    -5.977307    290473.33    1.1190645 
  825000    360.87026    3.2479914    290456.99    1.1191274 
  826000    361.57033    20.722152     288167.3    1.1280197 
  827000    361.98226    9.0615006    288766.04    1.1256808 
  828000    377.36919     58.93122    285754.46    1.1375444 
  829000    374.22359    11.849399    287108.93    1.1321779 
  830000    372.94577   -6.8462576    287969.82    1.1287932 
  831000    390.39775   -9.3392985    289680.27    1.1221282 
  832000    369.65491    1.2031138    292497.03     1.111322 
  833000    377.22763   -18.768594    292849.22    1.1099855 
  834000    371.15776    41.393343    290951.19    1.1172265 
  835000    389.60132    4.0297807    293587.15    1.1071955 
  836000    357.52885    40.078726    292896.33    1.1098069 
  837000    365.19968   -17.260912    295838.27    1.0987706 
  838000    380.41582   -4.3693665       293796    1.1064085 
  839000    354.16339    41.737157    288529.98    1.1266017 
  840000    356.35018   -16.588975     290923.1    1.1173344 
  841000    376.53382    1.8144445    288649.87    1.1261338 
  842000    352.77645    99.255123    285392.04    1.1389889 
  843000    402.88926   -8.0432183    290176.48    1.1202093 
  844000    366.13512   -42.913903    290362.62    1.1194912 
  845000    391.00495   -7.0736456     287884.8    1.1291266 
  846000    378.93673    23.709221    285212.93    1.1397042 
  847000    376.87593   -6.9885739    286346.71    1.1351916 
  848000    368.16653    11.011329    287423.35    1.1309394 
  849000    372.78659    1.9778662     289264.3    1.1237418 
  850000    364.72259   -5.6496174    287847.93    1.1292712 
  851000     389.2154    118.18442    281679.03    1.1540028 
  852000     368.9266   -2.6477729    285026.49    1.1404497 
  853000    375.50132   -15.474719    286107.47    1.1361408 
  854000    375.01819  -0.75512546    285843.06    1.1371918 
  855000    357.84339    19.675943    285760.12    1.1375219 
  856000    378.88873    2.6006371    284683.27    1.1418247 
  857000    382.46142    20.290471    284766.01    1.1414929 
  858000    367.00852   -15.999713    286639.55    1.1340318 
  859000    383.40579    21.093948    283770.03    1.1454993 
  860000    389.57089     8.216707    288263.76    1.1276422 
  861000    358.65553    22.596615    288576.65    1.1264196 
  862000    381.24602   -8.3592998    290603.29     1.118564 
  863000    353.77945   -8.1902883    290346.56    1.1195531 
  864000    402.56057     5.219973    291121.23    1.1165739 
  865000    370.89332   -30.938557    291018.28    1.1169689 
  866000    373.91969  -0.91531999    290042.52    1.1207266 
  867000    364.56312   -24.473634    289124.07    1.1242868 
  868000    378.70331   -5.7716734    288244.62    1.1277171 
  869000    366.73002    11.058185    290046.44    1.1207115 
  870000    366.55508   -107.21828    296064.74    1.0979301 
  871000    363.48555    3.3761531    288597.88    1.1263367 
  872000    381.59743   -46.726533    289030.65    1.1246502 
  873000    369.78739    16.314454    287869.91     1.129185 
  874000    371.04228    19.370353    288927.52    1.1250516 
  875000    374.10688      7.15961    291526.42     1.115022 
  876000    371.83962   -10.106264    292378.47    1.1117727 
  877000    369.24547   -87.965974    295572.69    1.0997578 
  878000    378.19087   -2.2163852    289195.12    1.1240106 
  879000    377.81109   -39.753193    288108.54    1.1282497 
  880000     384.3333    17.005954    285857.05    1.1371361 
  881000    365.56973   -5.9782788    285586.72    1.1382125 
  882000    384.24928    20.364688    283964.31    1.1447156 
  883000     364.9173  -0.24141968    283427.45    1.1468839 
  884000    382.18499    -76.09547    286383.46    1.1350459 
  885000    361.32245    -8.491279    286129.06    1.1360551 
  886000    363.05838    37.129233    284636.25    1.1420133 
  887000    380.30959   -1.5606532    289661.61    1.1222004 
  888000    373.20324    9.3399332    290374.88    1.1194439 
  889000    351.27371    25.964042    289814.07    1.1216101 
  890000    378.52997    -3.149923    290733.48    1.1180631 
  891000    388.66974   -82.720615    294648.69    1.1032066 
  892000    378.23685      5.77221    286145.22    1.1359909 
  893000    386.53655   -5.9435367    288187.62    1.1279401 
  894000    381.70338    67.285806    286282.49    1.1354463 
  895000    389.59239    6.6248283    286621.81    1.1341021 
  896000    345.98575   -66.176671     290358.5     1.119507 
  897000    379.04687    7.7146483    287804.14     1.129443 
  898000     366.1307    4.3767041    287978.03     1.128761 
  899000    378.12884     2.887239    284517.78    1.1424888 
  900000    388.10227   -9.0920623    287277.99    1.1315116 
  901000    357.96919    11.509181    287910.54    1.1290256 
  902000    390.21005    9.7025829    287756.21    1.1296312 
  903000     366.4114   -68.157408    291935.95    1.1134579 
  904000    387.69414   0.92783825    288428.31    1.1269989 
  905000    369.92756    55.545999    287203.46    1.1318053 
  906000    376.42347   -2.3335346    291314.14    1.1158345 
  907000    387.50996   -4.9987785    288442.89    1.1269419 
  908000      359.134   -74.304217    291426.15    1.1154057 
  909000    384.34782   -21.578738       287725    1.1297537 
  910000    379.94349    11.636529    284307.81    1.1433326 
  911000    364.36489    18.272512    284536.63    1.1424131 
  912000    389.52388    7.9847408    285307.33    1.1393271 
  913000    375.15565   -10.546481    287518.07    1.1305668 
  914000    392.84532   -58.661236    291619.26    1.1146671 
  915000    366.71985   -5.2695801    286470.66    1.1347004 
  916000    384.31418   -12.090454    283709.97    1.1457418 
  917000    362.67665   -73.513522    285326.71    1.1392498 
  918000    373.74665    12.536389    283287.69    1.1474497 
  919000    375.55224   -7.5643815     284162.2    1.1439184 
  920000    371.24754   -4.5651211    282232.87    1.1517382 
  921000    368.48474    81.857948    280258.56    1.1598518 
  922000    378.78774    7.9459218    284804.92    1.1413369 
  923000    360.97074    18.122728    282311.55    1.1514172 
  924000    368.86109   -6.1729617    284348.45    1.1431692 
  925000    381.50237   -12.007651    282793.06    1.1494567 
  926000     357.8221   -3.4162017    280656.49    1.1582073 
  927000    402.89483    114.23364     275742.4     1.178848 
  928000    352.48249    51.366214    279399.74    1.1634169 
  929000    377.78428    16.427742       284319    1.1432876 
  930000    368.83742   -9.7719633    287049.57     1.132412 
  931000    367.63874   -9.4107886    288633.25    1.1261987 
  932000    369.57346  -0.96596471    289222.82    1.1239029 
  933000    394.51668    40.047589    285764.28    1.1375053 
  934000    382.69827   -8.8137289    285949.02    1.1367704 
  935000    370.29694    15.576368    285042.32    1.1403864 
  936000    366.82038   -40.418621    286861.09    1.1331561 
  937000    369.33801    82.781734    282113.29    1.1522264 
  938000    376.72206    -1.195937    284553.82    1.1423441 
  939000    373.05962   -11.551662    285264.43    1.1394985 
  940000    368.53972    24.754328    284119.77    1.1440893 
  941000    370.74406    61.926839     280714.4    1.1579683 
  942000    374.99571    22.369026    282355.94    1.1512362 
  943000    365.48177    -4.707263    282519.87    1.1505682 
  944000    381.67562   -16.333639    285866.69    1.1370978 
  945000    372.23827    36.986764    286027.69    1.1364577 
  946000    361.64941     18.11407    287049.12    1.1324138 
  947000    390.23708   -11.762617    290908.24    1.1173915 
  948000    365.52383    121.79563    281569.87    1.1544502 
  949000    376.00151   -8.9864124    285854.54    1.1371461 
  950000     372.8019    8.4429927    286795.61    1.1334148 
  951000    379.92577    -8.942567    290079.82    1.1205825 
  952000     373.9158    -2.153517    289810.62    1.1216234 
  953000    371.75155    7.5179621     288448.3    1.1269208 
  954000    353.22376   -6.2935706     291552.3    1.1149231 
  955000    367.91525   -19.507996    290388.57    1.1193911 
  956000    367.09198   -8.5259137     285607.1    1.1381313 
  957000    368.98897    95.754098    284000.62    1.1445693 
  958000    368.74683   -8.9868601    288931.96    1.1250344 
  959000    398.71354    16.993188    287223.54    1.1317261 
  960000    367.68457    16.324558    288747.89    1.1257515 
  961000     376.9753  -0.57507649    287842.82    1.1292913 
  962000    357.92823    73.607732    283396.57    1.1470089 
  963000    391.39493    23.631841    286883.19    1.1330688 
  964000     368.1308    9.0321714     283129.8    1.1480896 
  965000    379.52739    33.437729    285964.52    1.1367088 
  966000    366.96056    10.529107    286902.78    1.1329914 
  967000    398.91804   0.66371766    286520.13    1.1345045 
  968000    365.25286    10.682037    285298.31    1.1393632 
  969000    393.04173    112.82513    283870.88    1.1450924 
  970000    367.79441    -7.164259     287556.7    1.1304149 
  971000    370.31128   -10.884427    286156.91    1.1359445 
  972000    373.52988    59.909455    282410.75    1.1510128 
  973000    363.50648    16.630572    286353.55    1.1351645 
  974000    357.77846   -1.2528519     285603.4     1.138146 
  975000    374.23718     23.17652    284996.98    1.1405678 
  976000    378.25918    114.55117    281216.37    1.1559014 
  977000    363.38215    16.026737    282678.96    1.1499207 
  978000    381.90164    1.6861332    284559.98    1.1423194 
  979000    367.74191    39.769112    283767.44    1.1455098 
  980000    376.24384   -18.759777    284893.89    1.1409805 
  981000    368.10851   -5.2389811    284791.61    1.1413903 
  982000     361.4491    23.701304    285511.71    1.1385116 
  983000    366.87637    58.375275    286074.93    1.1362701 
  984000    382.29251    2.8164029    289114.94    1.1243223 
  985000    349.24013  -0.10357682    287733.36    1.1297209 
  986000    363.17405    19.620804     285007.3    1.1405265 
  987000    387.90804    24.949425    286332.57    1.1352477 
  988000    373.95726   -11.938084     288872.7    1.1252651 
  989000    364.01482    11.655678    285849.02    1.1371681 
  990000     370.3836    -16.84046    286493.86    1.1346085 
  991000    386.35632   -49.457466    290791.85    1.1178387 
  992000    360.55381    29.967889    288800.58    1.1255462 
  993000    382.50527   -9.8054329    288970.76    1.1248833 
  994000    385.97559    37.579381    284498.17    1.1425676 
  995000    366.83705   -51.303666    287035.61    1.1324671 
  996000    365.57911    8.1577585    286559.94    1.1343469 
  997000    382.67376   -13.912791    285114.32    1.1400984 
  998000    374.17878    18.782459    283240.83    1.1476395 
  999000    372.35414    35.639429    283950.21    1.1447725 
 1000000     371.9805    5.2755201    285934.98    1.1368262 
 1001000    374.02451     19.08285    286288.92    1.1354208 
 1002000    363.84695   -49.489455    291205.07    1.1162525 
 1003000    399.75288    3.0723547    288057.77    1.1284486 
 1004000     385.8191   -0.8776535    288860.88    1.1253112 
 1005000    365.14344   -62.813066    291919.58    1.1135203 
 1006000    379.77517   -33.531872    290666.75    1.1183198 
 1007000    373.55858     9.962019    288115.95    1.1282207 
 1008000    372.12847   -18.780652    287598.51    1.1302506 
 1009000    357.62754    73.530138    285044.19    1.1403789 
 1010000    386.13534    -13.82662    289171.48    1.1241025 
 1011000     366.6839   -4.9353115    288284.19    1.1275623 
 1012000    359.21608    29.506158    286860.52    1.1331583 
 1013000    390.49545    38.780522    285486.79     1.138611 
 1014000    365.79655    3.1764215    284967.62    1.1406853 
 1015000    382.43616    25.986831    283154.95    1.1479876 
 1016000    367.69564    63.723134    285140.04    1.1399956 
 1017000    381.05901   -20.395575    289092.71    1.1244088 
 1018000    362.85559   -9.9755241    286818.43    1.1333246 
 1019000    390.93772    -25.68992    286629.43    1.1340719 
 1020000    356.30359    117.75697    282080.39    1.1523608 
 1021000    374.49011   -17.824566    286358.51    1.1351448 
 1022000    347.57775   -2.5671553    287143.57    1.1320413 
 1023000    372.84512   -29.196724    288461.39    1.1268696 
 1024000    387.22032   -85.086992    293330.23    1.1081653 
 1025000    361.89751   -14.130901    287557.53    1.1304117 
 1026000    376.82359    11.112939    284470.72    1.1426778 
 1027000    371.52031    39.243961    284710.57    1.1417152 
 1028000    384.77661    21.742424    281640.65      1.15416 
 1029000    365.37472   -7.0945047    284043.74    1.1443955 
 1030000    359.53141    -26.43197    284061.55    1.1443237 
 1031000    380.50836    -59.21984    285796.48    1.1373771 
 1032000    381.60292   -11.017262    282952.44    1.1488093 
 1033000    353.43467    21.024936    279710.37    1.1621249 
 1034000    377.98184   -42.431295    283189.59    1.1478472 
 1035000    372.61167    4.7632419     283173.6     1.147912 
 1036000     390.7075    23.997436    282356.83    1.1512326 
 1037000    345.82154    -13.81635    284490.37    1.1425989 
 1038000    374.97008   -5.6674933    284939.54    1.1407977 
 1039000    362.88463   -94.091152    288381.78    1.1271807 
 1040000    369.24621    15.058022    280464.22    1.1590012 
 1041000    378.45268   -13.126094    283724.61    1.1456827 
 1042000    369.84924    -62.55157    285464.25    1.1387008 
 1043000    391.78216    10.447979    283553.67    1.1463734 
 1044000    353.48239    -17.79198    286449.23    1.1347853 
 1045000    403.82897   -14.484944    283759.58    1.1455415 
 1046000    354.25136   -11.931773    283506.16    1.1465655 
 1047000    370.74418   -64.845358    284149.51    1.1439695 
 1048000    368.07085   -3.7658033    279473.78    1.1631087 
 1049000    361.86152    40.086512    280537.07    1.1587003 
 1050000    389.73824   -7.5141759    285188.86    1.1398004 
 1051000    369.98558   -39.289199    285723.67     1.137667 
 1052000    356.24434    5.2977853    283862.41    1.1451265 
 1053000    403.86839   -11.806583    286425.45    1.1348795 
 1054000    368.88871   -27.839112    286771.94    1.1335083 
 1055000    373.35993    9.9351326    284387.59    1.1430119 
 1056000     378.0525   -45.598228    287174.41    1.1319197 
 1057000    365.86917    12.167954    283131.07    1.1480844 
 1058000    381.76045    1.1547318       285382     1.139029 
 1059000      377.361    19.225588    285633.11    1.1380277 
 1060000    363.46638   -4.1809467    284175.88    1.1438634 
 1061000    366.76238   -64.319022    289564.54    1.1225766 
 1062000    356.97793   0.74334785    282657.82    1.1500067 
 1063000    360.31428    1.6439533    284105.18     1.144148 
 1064000    380.98367    5.1211239    285045.06    1.1403754 
 1065000    367.95552    9.1518153    284139.12    1.1440114 
 1066000    380.32247    9.1101499     284895.9    1.1409725 
 1067000    367.95444   -36.662025    287147.63    1.1320253 
 1068000    374.48018    10.447064    283985.56      1.14463 
 1069000    349.56055   -74.807002    286723.85    1.1336984 
 1070000    380.56142    10.184275    282054.75    1.1524656 
 1071000    351.08403   -61.292402    283663.24    1.1459306 
 1072000    373.76015    -6.800989    281896.11    1.1531141 
 1073000    353.96918   -104.88613    289115.39    1.1243206 
 1074000    369.16421    -7.645558    282390.77    1.1510942 
 1075000    382.66637    88.322809    280171.19    1.1602134 
 1076000    378.66788   -7.1330414    284045.62    1.1443879 
 1077000     373.1086    28.061721     283477.2    1.1466826 
 1078000    357.74184   -6.7035237     284404.1    1.1429455 
 1079000    381.27077   -43.893571    286869.96     1.133121 
 1080000    366.61516    14.223522    286366.46    1.1351133 
 1081000    364.51815   -20.089968    286616.98    1.1341212 
 1082000    393.66605   -14.001922    285499.07     1.138562 
 1083000     367.8671    4.6337854    284574.94    1.1422593 
 1084000    359.63401    28.823581    282041.02    1.1525217 
 1085000    385.90194    4.8553549    282946.74    1.1488324 
 1086000    377.95561    47.864036    283852.08    1.1451682 
 1087000    387.82647   -0.7476807    284626.93    1.1420507 
 1088000     361.2908    103.09008    281955.41    1.1528716 
 1089000    387.20821    2.3710662    287617.89    1.1301744 
 1090000    369.99163    35.683925    287392.86    1.1310593 
 1091000    362.14023   -1.3234041    288441.15    1.1269487 
 1092000    395.10358    6.2832216    289168.72    1.1241132 
 1093000    376.70945   -46.270552    290064.93    1.1206401 
 1094000    366.86236    1.0671818    287182.83    1.1318865 
 1095000    366.78517    50.849991    282988.09    1.1486645 
 1096000    362.19603     4.212232    284688.67     1.141803 
 1097000    354.62014    13.049032    286053.18    1.1363565 
 1098000    386.21863   -43.403324    287737.17    1.1297059 
 1099000    351.17537    8.7844357    287161.37    1.1319711 
 1100000    368.40317   -63.389492    288382.32    1.1271786 
 1101000    385.24292  -0.63758081    287362.51    1.1311788 
 1102000    371.10358    55.707905    285965.75    1.1367039 
 1103000    394.18524   0.60034373    291568.46    1.1148612 
 1104000    354.65421   -24.636339    292668.17    1.1106721 
 1105000    385.02493   -6.6717078    290599.59    1.1185783 
 1106000    395.39839    1.6838333    290436.73    1.1192055 
 1107000    373.88776      62.6728    287885.91    1.1291222 
 1108000    377.97668    8.9628195    286907.99    1.1329708 
 1109000    375.57541    96.634243    283591.58    1.1462202 
 1110000    360.92432   0.26857454     288386.6    1.1271619 
 1111000     377.6261    84.235766    287755.57    1.1296337 
 1112000    369.42532   -8.3452524    292499.31    1.1113133 
 1113000    362.22839   -12.300199    292062.89    1.1129739 
 1114000    386.01586    3.5660122    292007.48    1.1131851 
 1115000     361.4569    60.110249    287397.18    1.1310423 
 1116000    394.14094   -8.1427653    292125.22    1.1127364 
 1117000    360.63022   -48.653576    292720.49    1.1104736 
 1118000    379.96384   -9.0673501    291608.24    1.1147092 
 1119000    384.51334    21.391816    287893.48    1.1290925 
 1120000    362.99346   -13.031934    290383.08    1.1194123 
 1121000    370.09725   -2.5345708    287889.16    1.1291095 
 1122000    377.68743    79.062096    288179.25    1.1279729 
 1123000    368.82522    8.5255761    291392.32    1.1155352 
 1124000    389.81689    -13.99766    290401.33    1.1193419 
 1125000      368.597  -0.50031228    289437.02    1.1230712 
 1126000    348.89435    28.631724    287209.45    1.1317816 
 1127000    379.80923    5.1687777    292181.25    1.1125231 
 1128000      373.412    13.276768    291033.25    1.1169115 
 1129000    369.96573    1.9353659    290392.22     1.119377 
 1130000    393.96803    7.8739479    288919.94    1.1250812 
 1131000    369.55933    94.327546    284155.06    1.1439472 
 1132000    396.69786    6.4837529    286807.42    1.1333681 
 1133000    375.95867    18.559293    285174.99    1.1398559 
 1134000    377.75994     -47.9395    288379.96    1.1271878 
 1135000    383.65128    3.1061692    287276.27    1.1315184 
 1136000    372.41653    19.747684     284397.4    1.1429724 
 1137000      360.226    5.1859795    284360.67      1.14312 
 1138000    378.73614   -10.710719     287021.7     1.132522 
 1139000    369.21598   -34.911463    292187.86    1.1124979 
 1140000    371.20543     5.651325    289155.42    1.1241649 
 1141000    392.15262   -64.376417    291603.04    1.1147291 
 1142000    368.48136    7.4920191    285752.91    1.1375506 
 1143000    374.98634    27.928629    286528.34     1.134472 
 1144000    367.19632   -5.0338095    285843.44    1.1371903 
 1145000    380.01161   -58.570229    287117.59    1.1321438 
 1146000    363.99763    -5.609028     286476.9    1.1346757 
 1147000    362.76132    14.121764    286868.86    1.1331254 
 1148000    380.88009    4.7113572    288654.62    1.1261153 
 1149000    356.29239    7.0568426    287039.52    1.1324517 
 1150000    373.90499   -7.6167647    285747.57    1.1375718 
 1151000    391.65643   -5.8706997    284685.39    1.1418162 
 1152000    368.26594    13.606208    284372.56    1.1430723 
 1153000     379.8774    11.756873    287274.18    1.1315266 
 1154000    361.30531    6.4777128    285519.85    1.1384791 
 1155000    379.42682    -41.46064     289283.8     1.123666 
 1156000    356.33309    8.6468357    287810.97    1.1294162 
 1157000    384.12588   -56.896055    293944.91     1.105848 
 1158000    367.57134    9.6072106    292309.45    1.1120351 
 1159000    383.99608    37.809278    289770.39    1.1217791 
 1160000    367.52861   -13.989571    290385.72    1.1194021 
 1161000    367.02714   -8.1234301    285274.11    1.1394598 
 1162000    363.38278    30.697971    283418.11    1.1469217 
 1163000    363.93044   -9.0564268    288823.37    1.1254573 
 1164000    381.36152   -31.272233    287880.27    1.1291444 
 1165000    376.61524   0.53503131    288681.31    1.1260112 
 1166000    378.47661   -99.392935    293610.35     1.107108 
 1167000    360.87077   -5.0266719    286442.19    1.1348132 
 1168000     371.1385    17.762694    287780.96     1.129534 
 1169000     380.1038    14.317894    290439.86    1.1191934 
 1170000    371.85724     4.334838     289438.4    1.1230659 
 1171000    375.56054   -51.548954    288352.39    1.1272956 
 1172000    375.82983    10.397052    284577.13    1.1422506 
 1173000    367.47327   -6.1977408    285707.86    1.1377299 
 1174000    376.71135   -34.206444    286296.38    1.1353912 
 1175000    357.65978    8.6380321     281426.5    1.1550383 
 1176000    381.27884    8.0495544     281522.7    1.1546436 
 1177000    384.81792    5.8760158    283119.33     1.148132 
 1178000    356.23627   -83.791919    290315.72     1.119672 
 1179000     374.2838    11.630966    283713.88     1.145726 
 1180000    372.68543   -5.7413421    285474.97    1.1386581 
 1181000    344.56875    54.113693    284318.32    1.1432903 
 1182000    376.78925   -20.987101     287266.1    1.1315585 
 1183000    375.43705   -3.8885111    287214.93      1.13176 
 1184000    377.22244   -12.553588    288157.67    1.1280574 
 1185000    367.81048    71.726601    284202.99    1.1437543 
 1186000     389.9111    8.4914871     289910.9    1.1212355 
 1187000    369.49112   -3.0933109    285987.69    1.1366167 
 1188000    350.42467    23.454056    285146.08    1.1399714 
 1189000    364.27056   -13.116109    286843.95    1.1332237 
 1190000     382.3933   -7.1811328    285845.25    1.1371831 
 1191000    366.27415 -0.044330675    284133.59    1.1440336 
 1192000     366.3773   -22.691794    284795.23    1.1413758 
 1193000    385.05885   -115.69173    289096.88    1.1243926 
 1194000     370.1864   -17.205179    287576.87    1.1303356 
 1195000    377.60736     8.533068    287816.74    1.1293936 
 1196000    377.03533  -0.93240529    284789.92    1.1413971 
 1197000    377.15253    6.2715668    286099.18    1.1361738 
 1198000     367.5515   -29.572252    287499.24    1.1306408 
 1199000    377.33073   -59.741767    290140.87    1.1203467 
 1200000    356.40642     47.07022    285701.74    1.1377543 
 1201000    373.20527    13.220548    287628.43     1.130133 
 1202000    367.90547    4.9906025    286985.77    1.1326638 
 1203000    378.28542   0.31826366    287215.26    1.1317587 
 1204000    383.12776   -4.1486071    287149.07    1.1320196 
 1205000    371.66714    12.866542    286602.52    1.1341784 
 1206000    355.14828   -29.333245    287187.15    1.1318695 
 1207000    385.47776    32.428301    283905.29    1.1449536 
 1208000    365.82807    74.181347    281906.63    1.1530711 
 1209000    377.59255   -2.4212089    287752.55    1.1296455 
 1210000    377.25983   -6.9527708    287202.17    1.1318103 
 1211000    384.66318    6.2770014    288199.04    1.1278954 
 1212000    373.66411    11.543411    288501.68    1.1267123 
 1213000    375.37225    6.9301867     285602.3    1.1381504 
 1214000    374.43758   -45.470418    291697.16    1.1143694 
 1215000    370.49926   -22.423514    289055.51    1.1245535 
 1216000    369.34172   -4.7822113     288609.5    1.1262914 
 1217000    390.40911   -4.5425003    289272.67    1.1237093 
 1218000     376.9291    1.6057937    290773.88    1.1179078 
 1219000    381.56257   -22.263601    288464.83    1.1268562 
 1220000    362.04536   -86.128444    289291.89    1.1236346 
 1221000    370.50631   -42.591486    287180.93     1.131894 
 1222000    373.49945    7.5441287    286159.14    1.1359357 
 1223000    375.09374   -3.0171799    286428.51    1.1348674 
[...]
 5744000    364.25382    48.877544    284765.64    1.1414944 
 5745000    373.69578    29.633772    284765.64    1.1414944 
 5746000    373.16805     24.29721    284765.64    1.1414944 
 5747000     375.4407    30.574305    284765.64    1.1414944 
 5748000     371.8399    47.376227    284765.64    1.1414944 
 5749000    373.82233    47.017976    284765.64    1.1414944 
 5750000    373.77158    55.600449    284765.64    1.1414944 
 5751000    381.77405    23.638128    284765.64    1.1414944 
 5752000    383.63425    26.310014    284765.64    1.1414944 
 5753000    389.04118    3.5492659    284765.64    1.1414944 
 5754000    365.35686    64.177208    284765.64    1.1414944 
 5755000    368.34398    29.513369    284765.64    1.1414944 
 5756000    373.01257    4.3667392    284765.64    1.1414944 
 5757000    377.81614     6.592308    284765.64    1.1414944 
 5758000    374.84188    42.383385    284765.64    1.1414944 
 5759000    365.26495    47.912176    284765.64    1.1414944 
 5760000    383.53871   0.92898079    284765.64    1.1414944 
 5761000    383.07187   -15.933706    284765.64    1.1414944 
 5762000    374.36258   -1.8005392    284765.64    1.1414944 
 5763000    374.43023   -7.3842246    284765.64    1.1414944 
 5764000    378.10545    20.119009    284765.64    1.1414944 
 5765000    379.47444    18.264097    284765.64    1.1414944 
 5766000    380.36228   -18.229937    284765.64    1.1414944 
 5767000    385.01424   -12.715772    284765.64    1.1414944 
 5768000    393.98104   -43.847044    284765.64    1.1414944 
 5769000     369.6807    32.688214    284765.64    1.1414944 
 5770000    370.50742    48.894533    284765.64    1.1414944 
 5771000    386.22349    4.2204341    284765.64    1.1414944 
 5772000    377.46544    34.494358    284765.64    1.1414944 
 5773000    374.10774    57.184687    284765.64    1.1414944 
 5774000    376.00627    33.891049    284765.64    1.1414944 
 5775000    364.20768    75.107724    284765.64    1.1414944 
 5776000    369.44322    68.833364    284765.64    1.1414944 
 5777000    367.67986    62.995205    284765.64    1.1414944 
 5778000    387.33888   -1.6327729    284765.64    1.1414944 
 5779000    375.73344    13.344582    284765.64    1.1414944 
 5780000    371.12236    33.906453    284765.64    1.1414944 
 5781000    379.41442    2.6326382    284765.64    1.1414944 
 5782000    391.88191    -34.78731    284765.64    1.1414944 
 5783000    394.76564   -22.046634    284765.64    1.1414944 
 5784000    371.57695     24.98847    284765.64    1.1414944 
 5785000    369.15862    56.554047    284765.64    1.1414944 
 5786000    390.22511   -6.3390041    284765.64    1.1414944 
 5787000    380.42158    26.634036    284765.64    1.1414944 
 5788000    373.81513      45.0337    284765.64    1.1414944 
 5789000    366.19159    68.909377    284765.64    1.1414944 
 5790000     381.7476    33.283377    284765.64    1.1414944 
 5791000    375.62048    53.856962    284765.64    1.1414944 
 5792000    386.78014  -0.45535745    284765.64    1.1414944 
 5793000    388.90281    12.193819    284765.64    1.1414944 
 5794000    387.05236     17.71762    284765.64    1.1414944 
 5795000    387.29796   -4.8558226    284765.64    1.1414944 
 5796000    373.20794    27.518318    284765.64    1.1414944 
 5797000    376.54805    37.673534    284765.64    1.1414944 
 5798000    383.19352    29.274761    284765.64    1.1414944 
 5799000    382.96805    15.936787    284765.64    1.1414944 
 5800000     389.7465   -15.864554    284765.64    1.1414944 
 5801000    388.50887    5.7913665    284765.64    1.1414944 
 5802000    380.67731    54.151533    284765.64    1.1414944 
 5803000    385.23992    16.395632    284765.64    1.1414944 
 5804000    377.67704   -8.1551615    284765.64    1.1414944 
 5805000    375.14232    18.331346    284765.64    1.1414944 
 5806000    373.63044    45.645945    284765.64    1.1414944 
 5807000    369.74378    44.116438    284765.64    1.1414944 
 5808000     374.0312    19.287525    284765.64    1.1414944 
 5809000    393.02549   -21.238868    284765.64    1.1414944 
 5810000    375.10489    12.608473    284765.64    1.1414944 
 5811000    374.94793    8.4883411    284765.64    1.1414944 
 5812000     372.0997    13.544163    284765.64    1.1414944 
 5813000    369.10777    37.437694    284765.64    1.1414944 
 5814000    376.59494    35.486834    284765.64    1.1414944 
 5815000    378.11985     32.85687    284765.64    1.1414944 
 5816000    383.33449   -2.5856815    284765.64    1.1414944 
 5817000    370.25417    18.671086    284765.64    1.1414944 
 5818000    362.09112    28.575484    284765.64    1.1414944 
 5819000     366.4967    48.583712    284765.64    1.1414944 
 5820000    362.14421    81.137662    284765.64    1.1414944 
 5821000    381.89642    42.666152    284765.64    1.1414944 
 5822000    378.56593    45.138168    284765.64    1.1414944 
 5823000    367.17193    30.795479    284765.64    1.1414944 
 5824000    377.78893   -13.194822    284765.64    1.1414944 
 5825000    367.97259    42.792103    284765.64    1.1414944 
 5826000    378.29346    16.705857    284765.64    1.1414944 
 5827000    374.08045   -2.5543635    284765.64    1.1414944 
 5828000    372.26028    21.596246    284765.64    1.1414944 
 5829000    383.71822    9.1388989    284765.64    1.1414944 
 5830000    388.57097    1.0283595    284765.64    1.1414944 
 5831000    366.50318    82.605381    284765.64    1.1414944 
 5832000    380.49933      19.9935    284765.64    1.1414944 
 5833000    375.31694    31.033707    284765.64    1.1414944 
 5834000    366.37709    59.753353    284765.64    1.1414944 
 5835000    371.83179    24.297032    284765.64    1.1414944 
 5836000     381.1747    -15.90261    284765.64    1.1414944 
 5837000    381.81258   -15.390205    284765.64    1.1414944 
 5838000    373.20616    27.568677    284765.64    1.1414944 
 5839000    374.53241    36.564058    284765.64    1.1414944 
 5840000    373.74245    23.292374    284765.64    1.1414944 
 5841000    370.33897    32.995163    284765.64    1.1414944 
 5842000    372.30086    35.116711    284765.64    1.1414944 
 5843000     380.7178   -22.734988    284765.64    1.1414944 
 5844000    376.44017   -9.8274265    284765.64    1.1414944 
 5845000    367.53841    23.015028    284765.64    1.1414944 
 5846000    375.87121   -7.4547448    284765.64    1.1414944 
 5847000    374.18644   -23.702578    284765.64    1.1414944 
 5848000    358.31277    19.252258    284765.64    1.1414944 
 5849000    367.16221   -10.819749    284765.64    1.1414944 
 5850000     370.1513   -18.361731    284765.64    1.1414944 
 5851000    365.53752    39.135932    284765.64    1.1414944 
 5852000    374.34649    2.2864839    284765.64    1.1414944 
 5853000    373.24967   -12.153824    284765.64    1.1414944 
 5854000    382.27011   -12.391929    284765.64    1.1414944 
 5855000     373.5387    20.672556    284765.64    1.1414944 
 5856000    373.94174    22.721732    284765.64    1.1414944 
 5857000    374.47223    32.154114    284765.64    1.1414944 
 5858000    385.11607    7.7306098    284765.64    1.1414944 
 5859000    389.05089   -26.012179    284765.64    1.1414944 
 5860000    368.28272    27.441096    284765.64    1.1414944 
 5861000    377.75482   -14.352885    284765.64    1.1414944 
 5862000    361.34527    31.241025    284765.64    1.1414944 
 5863000    393.28508   -34.026394    284765.64    1.1414944 
 5864000    387.65254   -1.2767764    284765.64    1.1414944 
 5865000    383.49481   -6.2514173    284765.64    1.1414944 
 5866000    391.54122   -34.534566    284765.64    1.1414944 
 5867000    377.24638   -3.9003436    284765.64    1.1414944 
 5868000    383.18858   -2.9575585    284765.64    1.1414944 
 5869000    366.50719    27.608142    284765.64    1.1414944 
 5870000    378.78859    5.7584443    284765.64    1.1414944 
 5871000    385.06195    8.2579608    284765.64    1.1414944 
 5872000     377.9215    20.994083    284765.64    1.1414944 
 5873000     378.6658   -6.9559829    284765.64    1.1414944 
 5874000    376.12246   -5.6591467    284765.64    1.1414944 
 5875000    372.77563    25.280528    284765.64    1.1414944 
 5876000    372.53635   -3.9720995    284765.64    1.1414944 
 5877000    361.01228    32.020239    284765.64    1.1414944 
 5878000    379.10375    15.508268    284765.64    1.1414944 
 5879000    382.86384    25.140911    284765.64    1.1414944 
 5880000     369.6974     56.48802    284765.64    1.1414944 
 5881000    381.17791    9.9122908    284765.64    1.1414944 
 5882000    369.70412    35.759903    284765.64    1.1414944 
 5883000    382.68775    11.270524    284765.64    1.1414944 
 5884000    380.68276    8.2130511    284765.64    1.1414944 
 5885000    376.01801   -8.7332771    284765.64    1.1414944 
 5886000    372.12743    12.112344    284765.64    1.1414944 
 5887000    384.93796   -32.109691    284765.64    1.1414944 
 5888000    368.63092    23.623167    284765.64    1.1414944 
 5889000     376.4668    11.517632    284765.64    1.1414944 
 5890000    380.94464     6.535289    284765.64    1.1414944 
 5891000    369.31712    66.752748    284765.64    1.1414944 
 5892000    383.68885    41.677655    284765.64    1.1414944 
 5893000    372.64827    77.502053    284765.64    1.1414944 
 5894000    379.69935    26.096821    284765.64    1.1414944 
 5895000     372.7625    30.532974    284765.64    1.1414944 
 5896000    372.88785    9.7366222    284765.64    1.1414944 
 5897000    375.40412   -2.0763846    284765.64    1.1414944 
 5898000    366.45901     40.70451    284765.64    1.1414944 
 5899000    389.09252   -30.191333    284765.64    1.1414944 
 5900000    380.30645   -6.4468598    284765.64    1.1414944 
 5901000    382.91482   -35.427415    284765.64    1.1414944 
 5902000    365.79355    17.233559    284765.64    1.1414944 
 5903000    368.00641    28.443477    284765.64    1.1414944 
 5904000    388.74617   -41.413242    284765.64    1.1414944 
 5905000    372.89565    -6.070251    284765.64    1.1414944 
 5906000    363.04081     8.651546    284765.64    1.1414944 
 5907000    372.93693   -26.130427    284765.64    1.1414944 
 5908000    387.50578    -51.55355    284765.64    1.1414944 
 5909000     375.2983   -30.445458    284765.64    1.1414944 
 5910000    382.61857   -54.855415    284765.64    1.1414944 
 5911000    371.54672    -1.327727    284765.64    1.1414944 
 5912000    375.73385    6.5492507    284765.64    1.1414944 
 5913000    369.18728    14.524225    284765.64    1.1414944 
 5914000    376.11932   0.20424369    284765.64    1.1414944 
 5915000    373.04435   -9.0131972    284765.64    1.1414944 
 5916000      362.832     11.12857    284765.64    1.1414944 
 5917000    366.66869    11.491967    284765.64    1.1414944 
 5918000    373.36001   -10.757175    284765.64    1.1414944 
 5919000    378.26462     7.466115    284765.64    1.1414944 
 5920000    368.06822    51.432579    284765.64    1.1414944 
 5921000    380.95415   -11.281982    284765.64    1.1414944 
 5922000    366.89111     21.75167    284765.64    1.1414944 
 5923000    362.73674    55.965999    284765.64    1.1414944 
 5924000    374.06591    17.232075    284765.64    1.1414944 
 5925000    378.73592    8.2566252    284765.64    1.1414944 
 5926000    385.07124   -11.729125    284765.64    1.1414944 
 5927000    372.89915    21.793535    284765.64    1.1414944 
 5928000    376.70013    39.324307    284765.64    1.1414944 
 5929000    376.04942    31.141773    284765.64    1.1414944 
 5930000    379.79476    14.039203    284765.64    1.1414944 
 5931000    372.15794    50.724773    284765.64    1.1414944 
 5932000    375.71454    40.030829    284765.64    1.1414944 
 5933000    378.83664    29.712392    284765.64    1.1414944 
 5934000    392.58376   -6.6762858    284765.64    1.1414944 
 5935000    377.95128    59.901512    284765.64    1.1414944 
 5936000    395.62187   -3.8275974    284765.64    1.1414944 
 5937000    366.79828    58.854555    284765.64    1.1414944 
 5938000    363.94103    34.455933    284765.64    1.1414944 
 5939000    379.52184   -25.344979    284765.64    1.1414944 
 5940000    354.07153    65.623066    284765.64    1.1414944 
 5941000    384.40318   0.76248699    284765.64    1.1414944 
 5942000    388.70627    21.521471    284765.64    1.1414944 
 5943000    381.71897    35.324963    284765.64    1.1414944 
 5944000    373.36614    37.128619    284765.64    1.1414944 
 5945000    372.66038    15.224299    284765.64    1.1414944 
 5946000    373.25925    49.103128    284765.64    1.1414944 
 5947000    377.93858    54.389722    284765.64    1.1414944 
 5948000    397.30809    3.8070506    284765.64    1.1414944 
 5949000    394.87692    17.476548    284765.64    1.1414944 
 5950000    376.12062    54.611024    284765.64    1.1414944 
 5951000    378.91167    42.761305    284765.64    1.1414944 
 5952000    386.72446    28.852058    284765.64    1.1414944 
 5953000    367.03513    70.578738    284765.64    1.1414944 
 5954000    367.24076    69.038954    284765.64    1.1414944 
 5955000    379.44379    48.084476    284765.64    1.1414944 
 5956000    374.43976    35.396288    284765.64    1.1414944 
 5957000    378.75494     25.19324    284765.64    1.1414944 
 5958000    372.17923    86.885397    284765.64    1.1414944 
 5959000    384.73688    18.744866    284765.64    1.1414944 
 5960000    374.54002     17.73982    284765.64    1.1414944 
 5961000     381.1629   -8.1267067    284765.64    1.1414944 
 5962000    376.17027    27.971353    284765.64    1.1414944 
 5963000    379.31824    25.844414    284765.64    1.1414944 
 5964000    387.12724    22.787451    284765.64    1.1414944 
 5965000    390.67299    18.842114    284765.64    1.1414944 
 5966000    372.53217    64.871989    284765.64    1.1414944 
 5967000    386.88007    14.984911    284765.64    1.1414944 
 5968000    382.10439    13.707687    284765.64    1.1414944 
 5969000    377.12254    16.421287    284765.64    1.1414944 
 5970000    363.70931    61.071429    284765.64    1.1414944 
 5971000    384.14954   -18.587448    284765.64    1.1414944 
 5972000    378.90124   -3.4004539    284765.64    1.1414944 
 5973000    376.03976    6.1816169    284765.64    1.1414944 
 5974000    366.84822    41.337538    284765.64    1.1414944 
 5975000    360.65586    37.674969    284765.64    1.1414944 
 5976000      384.115   -17.166266    284765.64    1.1414944 
 5977000    385.35396     -37.7668    284765.64    1.1414944 
 5978000     370.5966    10.314102    284765.64    1.1414944 
 5979000    368.39626    18.816692    284765.64    1.1414944 
 5980000     375.6986    29.182755    284765.64    1.1414944 
 5981000    383.16525   -6.0625158    284765.64    1.1414944 
 5982000    383.07453    -7.401853    284765.64    1.1414944 
 5983000    382.69844   -3.9647979    284765.64    1.1414944 
 5984000    378.07042   -32.606827    284765.64    1.1414944 
 5985000    371.26753     -7.95272    284765.64    1.1414944 
 5986000    359.63382    41.894923    284765.64    1.1414944 
 5987000    373.03004   -9.8652536    284765.64    1.1414944 
 5988000    368.94446     2.919147    284765.64    1.1414944 
 5989000    379.74164   -22.242663    284765.64    1.1414944 
 5990000    378.70663    8.1833925    284765.64    1.1414944 
 5991000    372.58699    29.179386    284765.64    1.1414944 
 5992000    380.60371    29.222998    284765.64    1.1414944 
 5993000    391.36575    9.3812353    284765.64    1.1414944 
 5994000    383.50543    7.3449677    284765.64    1.1414944 
 5995000    374.10183    26.337243    284765.64    1.1414944 
 5996000    373.05331    41.959579    284765.64    1.1414944 
 5997000    389.11323   -12.231867    284765.64    1.1414944 
 5998000    371.24647     51.99021    284765.64    1.1414944 
 5999000    388.59863   -16.149455    284765.64    1.1414944 
 6000000    383.80553    26.722011    284765.64    1.1414944 
Loop time of 352.749 on 1 procs for 2000000 steps with 750 atoms

Performance: 244.933 ns/day, 0.098 hours/ns, 5669.753 timesteps/s
100.0% CPU use with 1 MPI tasks x no OpenMP threads

MPI task timing breakdown:
Section |  min time  |  avg time  |  max time  |%varavg| %total
---------------------------------------------------------------
Pair    | 294.98     | 294.98     | 294.98     |   0.0 | 83.62
Neigh   | 30.06      | 30.06      | 30.06      |   0.0 |  8.52
Comm    | 11.982     | 11.982     | 11.982     |   0.0 |  3.40
Output  | 0.033831   | 0.033831   | 0.033831   |   0.0 |  0.01
Modify  | 10.524     | 10.524     | 10.524     |   0.0 |  2.98
Other   |            | 5.166      |            |       |  1.46

Nlocal:    750 ave 750 max 750 min
Histogram: 1 0 0 0 0 0 0 0 0 0
Nghost:    1604 ave 1604 max 1604 min
Histogram: 1 0 0 0 0 0 0 0 0 0
Neighs:    14619 ave 14619 max 14619 min
Histogram: 1 0 0 0 0 0 0 0 0 0

Total # of neighbors = 14619
Ave neighs/atom = 19.492
Neighbor list builds = 43711
Dangerous builds = 0

#dump pos all xyz 10 lj.xyz

dump		2 all custom 10 lj_trajectory_match_nve.out id mass x y z xu yu zu fx fy fz
dump_modify	2 sort id
dump_modify	2 format line "%d %.2f %.12f %.12f %.12f %.6f %.6f %.6f %.3f %.3f %.3f"

run		10000
Per MPI rank memory allocation (min/avg/max) = 4.527 | 4.527 | 4.527 Mbytes
Step Temp Press Volume Density 
 6000000    383.80553    26.722011    284765.64    1.1414944 
 6001000    373.60646     87.53748    284765.64    1.1414944 
 6002000    370.03186    72.632439    284765.64    1.1414944 
 6003000    368.23785    65.632496    284765.64    1.1414944 
 6004000    380.11669      18.6328    284765.64    1.1414944 
 6005000    397.60897   -24.190919    284765.64    1.1414944 
 6006000    383.13808    4.0597979    284765.64    1.1414944 
 6007000    376.18311   -3.5245878    284765.64    1.1414944 
 6008000    376.66253    28.155222    284765.64    1.1414944 
 6009000    385.37967    17.024825    284765.64    1.1414944 
 6010000    386.50754    34.355464    284765.64    1.1414944 
Loop time of 5.57156 on 1 procs for 10000 steps with 750 atoms

Performance: 77.537 ns/day, 0.310 hours/ns, 1794.829 timesteps/s
95.9% CPU use with 1 MPI tasks x no OpenMP threads

MPI task timing breakdown:
Section |  min time  |  avg time  |  max time  |%varavg| %total
---------------------------------------------------------------
Pair    | 1.4881     | 1.4881     | 1.4881     |   0.0 | 26.71
Neigh   | 0.15074    | 0.15074    | 0.15074    |   0.0 |  2.71
Comm    | 0.060983   | 0.060983   | 0.060983   |   0.0 |  1.09
Output  | 3.7917     | 3.7917     | 3.7917     |   0.0 | 68.05
Modify  | 0.053337   | 0.053337   | 0.053337   |   0.0 |  0.96
Other   |            | 0.0267     |            |       |  0.48

Nlocal:    750 ave 750 max 750 min
Histogram: 1 0 0 0 0 0 0 0 0 0
Nghost:    1631 ave 1631 max 1631 min
Histogram: 1 0 0 0 0 0 0 0 0 0
Neighs:    14609 ave 14609 max 14609 min
Histogram: 1 0 0 0 0 0 0 0 0 0

Total # of neighbors = 14609
Ave neighs/atom = 19.4787
Neighbor list builds = 216
Dangerous builds = 0

####################################
# 6) Advanced inputs
####################################

#dump		2 all custom 1000 positions.lammpstrj id x y z vx vy vz
#dump_modify	2 sort id

#compute		RDF all rdf 150 cutoff 3.5
#fix		RDF_OUTPUT all ave/time 25 100 5000 c_RDF[*] file rdf_lj.out mode vector

#compute		MSD all msd
#fix		MSD_OUTPUT all ave/correlate 1 5000 5000 c_MSD[*] file msd_lj.out ave running

#compute		VACF all vacf
#fix		VACF_OUTPUT all ave/correlate 1 2500 5000 c_VACF[*] file vacf_lj.out ave running

#run		5000

#write_restart	restart2.lj.equil
Total wall time: 0:20:43
