LAMMPS (3 Mar 2020)
####################################
# Example LAMMPS input script      #
# for a simple Lennard Jones fluid #
####################################

####################################
# 1) Set up simulation box
#   - We set a 3D periodic box
#   - Our box has 10x10x10 atom
#     positions, evenly distributed
#   - The atom starting sites are
#     separated such that the box density
#     is 0.6
####################################

units		real
atom_style	atomic
dimension	3
boundary	p p p

lattice	fcc 6
Lattice spacing in x,y,z = 6 6 6
region		box block 0 4 0 4 0 4
create_box	1 box
Created orthogonal box = (0 0 0) to (24 24 24)
  1 by 1 by 1 MPI processor grid
create_atoms	1 box
Created 256 atoms
  create_atoms CPU = 0.000240296 secs

####################################
# 2) Define interparticle interactions
#   - Here, we use truncated & shifted LJ
#   - All atoms of type 1 (in this case, all atoms)
#     have a mass of 1.0
####################################

pair_style	lj/cut 15
pair_modify	shift yes
pair_coeff	1 1 0.75 5.0
mass		1 102.181

####################################
# 3) Neighbour lists
#   - Each atom will only consider neighbours
#     within a distance of 2.8 of each other
#   - The neighbour lists are recalculated
#     every timestep
####################################

neighbor        0.3 bin
neigh_modify    delay 10 every 1

####################################
# 4) Define simulation parameters
#   - We fix the temperature and
#     linear and angular momenta
#     of the system
#   - We run with fixed number (n),
#     volume (v), temperature (t)
####################################

#fix		LinMom all momentum 50 linear 1 1 1 angular
#fix		1 all nvt temp 1.00 1.00 5.0
fix 		1 all npt temp 373.0 373.0 25.0 iso 1.0 1.0  10.0

####################################
# 5) Final setup
#   - Define starting particle velocity
#   - Define timestep
#   - Define output system properties (temp, energy, etc.)
#   - Define simulation length
####################################

velocity	all create 373.0 199085 mom no

timestep	0.5

thermo_style	custom step temp press vol density #lx ly lz


run_style	verlet

thermo		1000
run		4000000
Neighbor list info ...
  update every 1 steps, delay 10 steps, check yes
  max neighbors/atom: 2000, page size: 100000
  master list distance cutoff = 15.3
  ghost atom cutoff = 15.3
  binsize = 7.65, bins = 4 4 4
  1 neighbor lists, perpetual/occasional/extra = 1 0 0
  (1) pair lj/cut, perpetual
      attributes: half, newton on
      pair build: half/bin/atomonly/newton
      stencil: half/bin/3d/newton
      bin: standard
Per MPI rank memory allocation (min/avg/max) = 3.22 | 3.22 | 3.22 Mbytes
Step Temp Press Volume Density 
       0          373    518324.27        13824    3.1421394 
    1000    387.91004    8.7211059    39353.705    1.1037572 
    2000    376.26532    2.7353159    42435.886    1.0235897 
    3000     379.8091    6.6202408    45047.583   0.96424562 
    4000    374.57519  -0.95471036    47833.119    0.9080933 
    5000     348.0376   -3.0351308    47205.346   0.92016982 
    6000    378.00524    2.4035869    47667.333   0.91125164 
    7000    341.70675   -3.6797943    47591.495   0.91270373 
    8000    363.79669    1.3386787    47818.775   0.90836569 
    9000    362.58921    2.0458973    49166.626   0.88346381 
   10000    418.64582    0.4297989    48803.545   0.89003647 
   11000    345.67197  -0.17664668    48392.548   0.89759553 
   12000    376.18164   -4.3399388    48075.759   0.90351013 
   13000     348.9538    2.3231703    47914.513   0.90655069 
   14000    399.58159   -2.3827557    47104.703   0.92213585 
   15000    391.19173    2.5736763    45598.312   0.95259962 
   16000    367.86947   -4.3132287    47424.114   0.91592507 
   17000    358.43458    2.4415077     47309.21   0.91814966 
   18000    368.22676    3.6842749    48412.979   0.89721674 
   19000    387.66303   -2.9193747    48127.397    0.9025407 
   20000    364.39926    1.6103008    48736.454   0.89126171 
   21000    375.37556  -0.46572196     49556.41   0.87651497 
   22000    355.41557   -2.7208772    47584.837   0.91283144 
   23000     375.5511    4.7518039    47210.466   0.92007003 
   24000    353.89206   -3.9691869    48340.301   0.89856568 
   25000    374.19941  -0.61545544    48466.862   0.89621925 
   26000    367.64004    3.2402735     50331.97   0.86300884 
   27000    386.70335   -2.3557153    51290.623   0.84687867 
   28000    355.94895   -4.6552859    49379.431   0.87965645 
   29000    384.82002    6.1648417     50225.65    0.8648357 
   30000    397.73426    5.8727913    51616.957   0.84152452 
   31000    347.86652   -2.5847425    51710.537   0.84000163 
   32000    377.15187    5.0081618    53186.594   0.81668954 
   33000    377.70114    -6.386494    52965.667   0.82009606 
   34000    394.53499    5.1621919    52601.143   0.82577929 
   35000    355.46792   -1.8121836    52264.473   0.83109869 
   36000    365.09355   -1.1933901     51891.34   0.83707484 
   37000    398.82902   -1.0850062      51035.8   0.85110716 
   38000    370.36843 -0.010881808    49477.061   0.87792067 
   39000    395.70193    9.5312237    49223.327   0.88244613 
   40000     361.7555    1.4918121    49539.795   0.87680893 
   41000    365.13575    2.9254766    48637.783   0.89306979 
   42000    380.14099   0.71591289    48199.981   0.90118157 
   43000    371.18779   -22.553656    47982.595   0.90526441 
   44000    327.15814  -0.85440887    47356.111   0.91724033 
   45000    352.98231   0.27890899    48360.802   0.89818476 
   46000    399.45706    2.4107654    49079.713   0.88502829 
   47000     395.7368  -0.43960501     48282.77   0.89963635 
   48000     389.1779    1.1537314    48816.205   0.88980565 
   49000     344.1795    -401.8079    53800.116   0.80737623 
   50000    382.44718    4.4042499    50181.705   0.86559305 
   51000    372.43487  -0.39550962    50727.329   0.85628271 
   52000    359.09488    34.855993    52273.747   0.83095125 
   53000    381.97022   -1.0109539    53511.517   0.81173058 
   54000    366.87756    1.3536083    52414.041   0.82872708 
   55000    381.92021    131.83494     49011.89   0.88625301 
   56000    368.55264   0.47288758    49687.624   0.87420028 
   57000    384.67359 -0.088249462    49386.818   0.87952488 
   58000    361.31224   -25.299341    49827.028   0.87175447 
   59000    373.75835    4.8337235    49898.006   0.87051444 
   60000      394.655   0.37558477    50467.325   0.86069422 
   61000    358.88293    49.699633    47446.936   0.91548451 
   62000    360.21793   -4.3880344    48755.463   0.89091421 
   63000    371.36213  -0.94922111    48496.496   0.89567162 
   64000    364.29528   -1.4528347    47366.508     0.917039 
   65000    354.71198   -23.933087     46998.33   0.92422295 
   66000    384.27316    1.0924358    48773.813   0.89057902 
   67000    387.28571     1.824857    47622.251   0.91211427 
   68000    335.75271    4.9922632    46776.635   0.92860325 
   69000    398.47063   -20.302549    47729.383   0.91006696 
   70000    388.58692  -0.64353374     48631.28   0.89318922 
   71000    344.17398    2.4175124    51375.239   0.84548386 
   72000    352.80182   -208.66045    54196.368   0.80147318 
   73000    372.20679   -0.6339714    50347.054   0.86275027 
   74000     394.1243    -2.967779    49337.532   0.88040348 
   75000    327.23957   -152.24506    49380.064   0.87964518 
   76000    381.39369    3.0921717     49327.19   0.88058807 
   77000    375.92508   0.21506438    50085.674   0.86725268 
   78000    374.91863   -63.580823    51590.964   0.84194851 
   79000    415.17019   -2.4741437     52540.28   0.82673588 
   80000    380.30803   0.67476679    51059.153   0.85071789 
   81000    402.73875   0.41886568     51179.84   0.84871182 
   82000    380.41835   -1.7468816    51221.017   0.84802954 
   83000    369.75227    3.3259236    51291.312   0.84686731 
   84000     365.5079   -244.05438     51625.14   0.84139114 
   85000    368.47098    2.5888952    47552.482   0.91345253 
   86000    363.98152  -0.13540017    46991.529   0.92435672 
   87000    372.27557  -0.35190619    47045.869   0.92328904 
   88000    377.70488    -3.656844    46550.104    0.9331222 
   89000    409.94692    22.568582    48229.693   0.90062641 
   90000    363.64533    30.762907    48100.551   0.90304445 
   91000    400.21988    30.852286    47774.582   0.90920597 
   92000    358.45276   -3.5905716    47987.599   0.90516999 
   93000    363.69535    1.5943699    48556.021    0.8945736 
   94000    376.23416  -0.87496372    47879.687   0.90721009 
   95000     339.3566    2.2054068    49534.322   0.87690582 
   96000    403.90539   -5.0512064    49978.279   0.86911626 
   97000    362.53893    11.567264    49444.608   0.87849691 
   98000    360.16963   -18.538387    48541.946     0.894833 
   99000    371.40413    21.050215    47747.178   0.90972779 
  100000    382.62867   -43.668556    47907.917    0.9066755 
  101000    341.03158    1.2897019    48166.888   0.90180073 
  102000    376.64527   0.11237813    48016.007   0.90463448 
  103000    348.45449   -2.1299755    48119.469   0.90268942 
  104000    420.57477     17.42651    48301.476   0.89928795 
  105000    374.30254   -44.947379    48854.799   0.88910273 
  106000    333.17986    -332.8051    48750.349   0.89100768 
  107000    373.19864   -66.759495    48278.576   0.89971451 
  108000    410.98612    8.3664646    47202.183   0.92023148 
  109000    347.25203  -0.29864338    46995.266    0.9242832 
  110000    387.30501   -1.4068158    46927.659   0.92561479 
  111000    350.00553    1.3919599    46616.043   0.93180228 
  112000    397.51415   -2.1797115    48809.529   0.88992736 
  113000     375.4281    4.0603573    48275.422   0.89977329 
  114000    376.46109    3.6395623    49690.237   0.87415431 
  115000     393.4418    -2.804079    49852.564   0.87130794 
  116000    351.21134  -0.66440091    48786.949   0.89033925 
  117000    391.26794   -2.9532811    47552.788   0.91344666 
  118000    374.11463    61.678142    47779.696   0.90910865 
  119000    350.42953    16.323026    46430.088   0.93553419 
  120000    367.51069    89.849256    46801.014   0.92811953 
  121000    385.86191   -12.835315    48274.892   0.89978316 
  122000    347.91711   -7.8691981    47889.604   0.90702221 
  123000    380.16112      5.65747     48020.12     0.904557 
  124000    361.11299    3.4843948    48274.822   0.89978447 
  125000     354.9901   -1.9540171     48190.11   0.90136618 
  126000    396.28853    1.2328239    49311.627   0.88086598 
  127000    350.62512   -3.5223655    50551.142   0.85926713 
  128000    382.35249    5.3680082    51384.903   0.84532485 
  129000    373.56072    123.48978    49495.599   0.87759187 
  130000    329.05339    137.08794    49191.485   0.88301736 
  131000    376.88964    5.7375787    49048.787   0.88558632 
  132000    365.02152    2.1235899    48489.833   0.89579468 
  133000    359.97211   -3.3656012    48934.134   0.88766126 
  134000    371.70072   -19.072719    48206.532   0.90105911 
  135000    383.46139   -315.09348    50352.254   0.86266118 
  136000    334.80952    14.510681    49293.806   0.88118445 
  137000     396.2756   -1.5411348    49976.145   0.86915338 
  138000    369.75645    1.5392571    51601.035   0.84178419 
  139000    394.27618  -0.85729141    52492.719   0.82748495 
  140000    357.87032   -209.96852    52976.078   0.81993489 
  141000    408.26212   -2.9193569    50848.943   0.85423477 
  142000    363.93123    5.1314814    48835.281   0.88945808 
  143000    382.94238   -150.89379     50203.97   0.86520916 
  144000    379.76374    10.858642    51556.359   0.84251363 
  145000    372.38911  -0.53929516    51614.192    0.8415696 
  146000    378.58464    26.847241    53745.552   0.80819591 
  147000    354.64266   -61.069448     51718.52   0.83987196 
  148000    360.98631   -2.8319188    48426.848   0.89695979 
  149000    389.65637   -9.9314839    48892.554   0.88841616 
  150000     363.6608    396.88691    46631.789   0.93148763 
  151000    394.87567   -3.0310693    49418.714   0.87895722 
  152000    412.18997    6.8697104    49249.697   0.88197365 
  153000    360.15359    399.81287    47915.064   0.90654026 
  154000    384.85387   -5.0903063    49830.154   0.87169979 
  155000    376.33292    8.3915546    48723.829   0.89149264 
  156000    354.95644   -77.107301    49788.894   0.87242217 
  157000     393.6109   -1.6770899    50033.043   0.86816497 
  158000    347.82911   -3.5156644    50111.785   0.86680079 
  159000    384.10974   -52.260603    50487.982   0.86034207 
  160000    364.33743    9.2727024    49623.711   0.87532622 
  161000    381.90577   -3.2858279    51540.103   0.84277936 
  162000    395.43163    238.40256    49530.721   0.87696957 
  163000    360.87418    2.1544658    49809.356   0.87206378 
  164000    380.23659     11.15912    48541.346   0.89484407 
  165000    337.92685   -39.279302    47355.526   0.91725166 
  166000    383.28517    3.1339971     47841.15   0.90794086 
  167000    366.44464   -330.04853    51245.157   0.84763005 
  168000    367.61838   -5.2066922    48998.483   0.88649551 
  169000    359.96838    66.814138    49355.499   0.88008298 
  170000    389.28086   -6.2510709    49085.202   0.88492933 
  171000     354.3196   -13.280433    50055.379   0.86777756 
  172000     361.3139    20.997169    50790.444   0.85521865 
  173000    375.23469   -1.3108177    51114.056   0.84980411 
  174000    409.96156     117.6545     50321.88   0.86318188 
  175000    355.94062   -3.0597739    50876.138   0.85377815 
  176000    399.03654    274.89499    49377.115   0.87969772 
  177000    384.41698    3.5466634    49431.879   0.87872312 
  178000    355.37069    -82.65835    50502.706   0.86009124 
  179000    419.17314   -4.1840702    49487.755   0.87773096 
  180000    335.75292     3.598763    49179.091    0.8832399 
  181000    346.31274    13.534583    49675.926   0.87440615 
  182000    384.00285   -4.1581879    50872.916   0.85383223 
  183000    380.83059    260.00843    48268.322   0.89990564 
  184000    393.72932   -8.1489515     49569.78   0.87627854 
  185000    373.07013    3.5729579    52452.136    0.8281252 
  186000    406.27767   -70.096031    52192.487   0.83224497 
  187000     382.1483    3.9298755    50314.771   0.86330385 
  188000     355.4817    15.622998    49026.125   0.88599568 
  189000    393.15455    1.2212499    49433.265   0.87869848 
  190000    368.56061    6.9658873     48505.81   0.89549964 
  191000    377.81829    65.462791    48345.879   0.89846199 
  192000     356.4622    1.6712238    47866.405   0.90746183 
  193000    362.55689    383.92151    45707.413   0.95032584 
  194000    374.45808  -0.69532296    49056.991   0.88543822 
  195000    382.48449  -0.64370365    50400.944    0.8618278 
  196000    376.83457    7.6489705      50503.3   0.86008113 
  197000    370.24619   -19.497469    51399.256   0.84508879 
  198000     398.8089    19.061273    54729.586    0.7936646 
  199000     363.5914   -8.9739348    54150.936    0.8021456 
  200000    417.89358   0.53701742    55630.884   0.78080613 
  201000    351.89952    3.6116878    53947.487   0.80517069 
  202000    370.67013    23.814131    52969.442   0.82003761 
  203000    402.76742   -15.244507    53100.143   0.81801917 
  204000    341.60319   -2.9150153    53252.393   0.81568043 
  205000    391.80921   -8.0207379     53235.73   0.81593574 
  206000    389.95366    5.1764007    52262.575   0.83112887 
  207000    391.06123    71.362209    50669.599   0.85725832 
  208000    376.05893   0.60901621    50727.646   0.85627736 
  209000    350.60243    151.12212    47649.648   0.91158985 
  210000    402.48041    4.1808661    49945.854    0.8696805 
  211000    391.92986   -13.567853    49701.807   0.87395082 
  212000    399.97626   -8.4079197    48984.138   0.88675512 
  213000    367.49772    2.8019478    49899.867   0.87048199 
  214000    400.07644   -26.912972    51186.213   0.84860614 
  215000    370.21034    -4.931187    51198.647   0.84840005 
  216000    343.50343    55.207278    49822.936   0.87182608 
  217000    407.65044    1.5265262    50849.068   0.85423267 
  218000    387.98532    144.00998    48459.157   0.89636176 
  219000    373.69287    8.9756744    50558.909   0.85913513 
  220000    354.47365   -5.0464609    49988.621   0.86893645 
  221000    399.18029    40.922091    47499.732   0.91446695 
  222000    369.53476   -5.0483791    47690.728   0.91080461 
  223000    331.97077    73.544025    47914.548   0.90655003 
  224000     373.8815  -0.65745639     47737.25     0.909917 
  225000    392.34651    139.27748    48411.226   0.89724922 
  226000    381.13581    4.8057152    47959.176   0.90570646 
  227000    368.95704    -38.16504    48691.586   0.89208298 
  228000    376.34971   -3.9577557    47787.878   0.90895301 
  229000    381.22262     4.377876    46980.387   0.92457594 
  230000    345.53673   -57.209505    46605.507   0.93201293 
  231000    373.76387    3.1104949    46601.991   0.93208324 
  232000    368.44973   -150.43898    50282.397   0.86385967 
  233000    360.56236   -5.1136812    48499.598   0.89561433 
  234000    372.62847    414.62116     48507.16   0.89547471 
  235000    355.53461   -4.3667942    51724.937   0.83976777 
  236000    371.74006   -185.86269    54388.258   0.79864545 
  237000    355.02373  -0.29612148    53038.249   0.81897377 
  238000    372.49483    384.41796    49214.191   0.88260996 
  239000    390.75454    3.9314948    52329.953   0.83005874 
  240000    329.16314    79.737208    48992.139    0.8866103 
  241000    385.04409   -5.9816467    49771.851   0.87272091 
  242000    318.83648   -45.445107    50529.512   0.85963496 
  243000    405.63827    3.3634964    48981.528   0.88680238 
  244000    362.19165    12.524482    49418.328   0.87896407 
  245000    373.93493    -49.15163     48745.96   0.89108789 
  246000    370.19138    5.5926762    48466.696   0.89622233 
  247000    400.57288    337.70742    47140.192   0.92144163 
  248000    370.30702 0.0038586715    47900.662   0.90681283 
  249000    381.69151   -41.112786    49508.947   0.87735526 
  250000    365.90775   -6.6263651    48433.893   0.89682932 
  251000    376.07272   -31.480465    47437.122    0.9156739 
  252000    353.63996   -9.4778328    46484.127   0.93444662 
  253000    384.46633  -0.59768533    47535.014    0.9137882 
  254000    353.11574   -15.750461    48000.364   0.90492929 
  255000    386.13855    11.435292    47486.081   0.91472983 
  256000    358.88292    22.881008     47315.01   0.91803712 
  257000    394.72766   -19.623469    47453.668   0.91535463 
  258000    365.26274   -17.562719    46456.244   0.93500747 
  259000    389.64179   -1.2837247    46365.194   0.93684359 
  260000    395.93184    1.3952733    47477.632   0.91489261 
  261000    375.17469    18.431999    47329.211   0.91776166 
  262000    390.72898    12.218952    48214.968   0.90090145 
  263000    381.09217    32.752594    48706.275   0.89181395 
  264000    378.56043   0.45263157    49103.503   0.88459951 
  265000    374.97037     30.50889    49253.525    0.8819051 
  266000     404.1389   -7.5687892    50905.606   0.85328391 
  267000     353.7456   -69.843409    50799.696    0.8550629 
  268000    377.83209    3.8980097    50000.489    0.8687302 
  269000     352.0204   -257.17228    50717.265   0.85645263 
  270000    384.89635  -0.47622763    48417.578   0.89713152 
  271000    375.45101    356.28834     46727.97   0.92957033 
  272000     380.8184   -1.5618376    50673.847   0.85718644 
  273000    361.32186     410.4967    49023.808   0.88603756 
  274000    375.34332    5.6870259    49280.805   0.88141691 
  275000    347.74102   -167.39866    47622.403   0.91211136 
  276000    384.20151    6.9310123    47186.416   0.92053898 
  277000    383.75397    69.472567    47946.432   0.90594718 
  278000    352.49527    3.3065842    48241.399   0.90040787 
  279000    362.71068   -21.575863    47913.243   0.90657473 
  280000    356.73887     15.86785    47799.599   0.90873011 
  281000    379.67164    5.4487729    47254.499   0.91921268 
  282000     363.6433    11.520042    47892.282   0.90697151 
  283000    356.52611   -9.6654381    48768.007   0.89068505 
  284000    372.09755     49.09025    48424.569   0.89700199 
  285000    381.71688    1.9322614    48204.195   0.90110279 
  286000    361.41448   -43.161408    48484.165   0.89589941 
  287000    406.32143    7.9293602    52439.213   0.82832927 
  288000    346.98089     34.79433    50848.504   0.85424215 
  289000    392.52152    2.2136537    50449.332    0.8610012 
  290000    382.50419   -170.17475    50803.279   0.85500259 
  291000    355.96681    5.7576532    49838.936   0.87154619 
  292000    380.44297    75.930298    48842.535   0.88932598 
  293000     357.7871     4.931381    49397.443    0.8793357 
  294000    386.78322    -172.6096    51041.974   0.85100421 
  295000    348.34736   0.41001584    49635.131   0.87512482 
  296000    364.19421   -15.757276    49469.589   0.87805329 
  297000    409.77268    2.4867328    49467.596   0.87808866 
  298000    317.65987    38.464852    48336.929   0.89862836 
  299000    377.15612    10.918279    48152.552   0.90206922 
  300000    379.18331    18.344478    48155.974   0.90200513 
  301000     356.3192   -40.133572    48705.724   0.89182404 
  302000    368.35815    8.5222062    48174.234   0.90166323 
  303000     380.6869     196.9996    48124.019   0.90260406 
  304000    355.11856   -6.1328067    47964.181   0.90561194 
  305000    413.56033   -6.4765987     48469.83   0.89616438 
  306000    361.64981   -3.5377727    48860.121   0.88900588 
  307000    376.35733    9.0128088    48758.143   0.89086524 
  308000    338.04586   -30.127309    48398.541   0.89748439 
  309000    369.62574    2.6676344    47757.119   0.90953844 
  310000    362.12996   -42.624331    49037.118   0.88579706 
  311000    372.84838     7.785552    46918.696    0.9257916 
  312000    384.31374    54.673207    46937.981   0.92541124 
  313000    369.20509    9.3240323    47906.301   0.90670609 
  314000    343.20089  -0.76422604    48525.553   0.89513528 
  315000    386.31014   -64.354726    51533.558    0.8428864 
  316000    327.48709  -0.33583573    49297.283   0.88112229 
  317000    413.16939   -278.24953    52205.806   0.83203264 
  318000    368.30145    4.8709637    48238.612   0.90045989 
  319000    381.98313    34.210525     49238.49   0.88217439 
  320000    355.35565 -0.099399564     48869.38   0.88883746 
  321000    397.18687    71.827889    49422.573   0.87888858 
  322000    351.48804    8.2124822    50018.709   0.86841375 
  323000      389.818   -19.051415    49437.327   0.87862628 
  324000    370.14636    17.087674    49443.713    0.8785128 
  325000    373.92267    5.0680914    50039.558   0.86805193 
  326000    362.02231    34.192113    50373.957   0.86228951 
  327000    367.02771    2.9610662    50939.192   0.85272131 
  328000     356.0279   -28.179277    50408.394   0.86170044 
  329000    367.06505   -5.3538796     49681.36   0.87431051 
  330000    374.17262    49.744892    49433.239   0.87869896 
  331000    374.58113    5.3488145     49565.23   0.87635899 
  332000    345.87587   -202.33113    52464.272   0.82793363 
  333000    386.98017   -3.7737479    50330.128   0.86304043 
  334000    369.07034    134.68145    50910.013   0.85321005 
  335000    389.65255    4.9565982    50626.663   0.85798535 
  336000    351.99444   -212.52448    50972.526   0.85216367 
  337000    346.44934    5.1011131    48633.524     0.893148 
  338000    413.47089    302.94243    45665.271   0.95120284 
  339000    349.18597    -5.390636    47270.984   0.91889214 
  340000    382.85293   -149.17103    48854.607   0.88910622 
  341000    384.20127   -0.8627863    47602.333   0.91249593 
  342000    362.77207    432.17955     44132.68   0.98423516 
  343000    403.29835  -0.23409607    46626.501   0.93159328 
  344000    372.50769   -66.095899    47878.785   0.90722717 
  345000    347.96035     3.735907    47058.521   0.92304081 
  346000    399.37481      110.885    48971.951    0.8869758 
  347000    351.33273   -8.4613715    49934.793   0.86987314 
  348000    408.86025    21.849862    50732.838   0.85618973 
  349000     427.2481   -23.411517     49976.79   0.86914216 
  350000    380.27604    9.5446135    49769.754   0.87275769 
  351000    365.45634    192.56417    48163.908   0.90185653 
  352000    384.07168  -0.52095704    47541.355   0.91366633 
  353000    396.52364    152.75425    48679.394    0.8923064 
  354000    355.64491   -5.9092904    48569.544   0.89432453 
  355000    387.16171    43.251309    47610.181   0.91234552 
  356000    371.67624   -22.776553     47238.02   0.91953336 
  357000    340.23269    8.7468295    46565.785   0.93280796 
  358000    358.46354    66.079878    49206.883   0.88274104 
  359000    372.70969   -6.9246262    50171.062   0.86577667 
  360000    361.91016   -102.39183     49998.44   0.86876581 
  361000    393.27926  -0.15470703    50803.752   0.85499463 
  362000    354.39847   -181.36523     48982.68   0.88678151 
  363000    384.00018   -2.2377622    48789.506   0.89029257 
  364000    372.31577    18.941136    49733.144   0.87340013 
  365000    369.46136    8.1016926    48913.278   0.88803975 
  366000    414.05262    47.257425    48483.754   0.89590701 
  367000    385.05358    7.2796124     51487.61   0.84363859 
  368000     338.3435    34.889551    50525.252   0.85970743 
  369000    389.92279    4.8026271    49063.521   0.88532038 
  370000    353.12037   -4.4421482    50099.728    0.8670094 
  371000    378.64933   -3.8150398    49891.497   0.87062802 
  372000    377.68695   0.14427873    47965.328   0.90559028 
  373000     398.9974    37.505546    47804.035   0.90864579 
  374000    345.81086   -10.905762    47982.096   0.90527382 
  375000    388.57596    1.3057501    47346.873   0.91741931 
  376000    373.72846    30.393595    49153.094   0.88370703 
  377000     363.4804    11.506179     49389.07   0.87948478 
  378000    348.51816   -39.708776     51189.89   0.84854519 
  379000    391.16622    7.1894033    50935.567     0.852782 
  380000    362.40452   -57.213342    49163.289   0.88352378 
  381000    346.99803   -6.0828949    49572.272    0.8762345 
  382000    392.72519   -158.95687    50623.668   0.85803611 
  383000    369.18041   -1.7228566    47402.686   0.91633912 
  384000    374.64319    40.750662    48188.817   0.90139036 
  385000    354.44172    4.0875329    47704.441    0.9105428 
  386000    344.95074    53.132015     48015.61   0.90464196 
  387000    399.81834    2.1643524    48007.183   0.90480075 
  388000     373.3544    3.1786551    49123.698   0.88423586 
  389000    350.42716    23.643515    49650.209   0.87485906 
  390000      369.758     7.340294    48317.229   0.89899476 
  391000      391.006    91.165092    46269.364   0.93878392 
  392000    379.44605    3.6737939     47548.24   0.91353402 
  393000    355.42624   -155.62015     47766.99   0.90935048 
  394000     397.3828   -5.9436966    48300.795   0.89930062 
  395000    362.13213   -63.191486    48773.887   0.89057768 
  396000    366.16702    -3.626396    47852.319   0.90772894 
  397000    369.20386   -133.99487     48354.82   0.89829586 
  398000    381.98561   -6.7533355    48524.326   0.89515793 
  399000    339.61297    79.187125    47616.197   0.91223024 
  400000    405.47751    5.6231861    49562.097   0.87641438 
  401000     354.5245   -142.48675    48340.854   0.89855538 
  402000    368.73115    3.7072257    47924.857   0.90635502 
  403000    352.80507   -339.15488    49576.296   0.87616338 
  404000    404.12649   -4.1386482    45972.571   0.94484459 
  405000     371.6804    113.52856    46453.939   0.93505385 
  406000    394.90828    1.2597612    49125.833   0.88419743 
  407000    362.81835   -12.374826    48557.901   0.89453898 
  408000    365.77348    -12.51774    48095.861   0.90313249 
  409000    388.05726   0.21583741    47903.729   0.90675478 
  410000     397.0215   -31.781327    48787.051   0.89033738 
  411000    380.92637   -7.5405152    52154.319   0.83285403 
  412000    375.80341   -44.856608    53278.513   0.81528055 
  413000    365.89861   0.27621132    52227.942      0.83168 
  414000    389.29783    64.417519    51814.782   0.83831164 
  415000    354.57011   -5.1810474    50609.662   0.85827357 
  416000    381.84717    144.88317    49482.382   0.87782627 
  417000    379.36762 -0.085622499    49514.606   0.87725499 
  418000    385.18668   -147.06505    49296.185   0.88114192 
  419000    364.96597   -5.4707989    49385.713   0.87954455 
  420000    398.30779    284.52935    48343.855   0.89849961 
  421000    369.50897   0.29573788    48753.355   0.89095274 
  422000    409.12044    252.46957    49040.046   0.88574418 
  423000    338.99415    2.8363384    52164.994   0.83268361 
  424000    405.20892    104.84894    51284.168   0.84698527 
  425000     392.9393    4.0678703    50679.697   0.85708751 
  426000    343.66657   -113.43669    51073.412   0.85048039 
  427000    369.81671    3.4196889    51099.309   0.85004936 
  428000    382.86602    35.701086     50496.99   0.86018861 
  429000    370.22967  -0.08674816    50357.214   0.86257621 
  430000    426.02019     60.95292    50741.123   0.85604993 
  431000    361.28696    5.9438511    50330.994   0.86302558 
  432000    377.07601   -11.332239    49944.592   0.86970248 
  433000    335.10812   -180.65718    50947.552    0.8525814 
  434000    359.90446   -3.2837337    47988.259   0.90515755 
  435000    455.86059    67.403434    47850.534   0.90776281 
  436000    345.96728    -11.13853    49415.084   0.87902178 
  437000    378.98748    7.1044173    49852.587   0.87130753 
  438000    351.93292   -121.18218    50103.248   0.86694849 
  439000    408.24331    26.515784    49346.839   0.88023744 
  440000    330.12359   -6.7673658    48681.446   0.89226879 
  441000    368.76225    269.57929    47762.405   0.90943778 
  442000    384.75278    10.924168    49089.531   0.88485129 
  443000    375.04814   -13.481566    47467.191   0.91509386 
  444000    365.53893   -58.830778    47160.725   0.92104044 
  445000    364.08685    6.1643504    47912.086   0.90659661 
  446000    405.86416    127.31444    47578.916   0.91294503 
  447000    375.88226   -4.8283049    49360.187   0.87999939 
  448000    396.94185    21.457675    49614.285   0.87549251 
  449000    379.49668     26.46541    49549.799   0.87663191 
  450000    391.07751   -6.8460454    50630.166   0.85792599 
  451000    375.27562    278.73326    48210.422   0.90098641 
  452000    389.46649   -5.3097128    49627.681   0.87525619 
  453000    345.54034    -293.2044    49991.132   0.86889282 
  454000    379.44452    3.4271735    49201.559   0.88283655 
  455000    377.71145   -140.84572    50049.772   0.86787478 
  456000     379.8064    -5.488487    50431.985   0.86129735 
  457000    364.43112   -273.78363    51656.674    0.8408775 
  458000    355.56707    2.5966865    49472.876   0.87799495 
  459000    351.59595    156.13601    47971.478   0.90547419 
  460000    386.62305    3.4476821    49537.598   0.87684782 
  461000    358.66281   -39.733948     48408.59   0.89729808 
  462000    380.04578   -10.195118    47752.704   0.90962252 
  463000    347.51492   -15.920259    46331.457   0.93752577 
  464000    382.55735    33.462151    45622.233   0.95210016 
  465000    381.56336   -8.7986393    47474.788   0.91494742 
  466000    352.15559    79.229578     48778.14   0.89050002 
  467000    373.13338    4.5559685    50406.162   0.86173859 
  468000     389.9102     -49.2493    51776.994   0.83892347 
  469000    375.57665    7.3192938     52093.88   0.83382031 
  470000    382.71097    8.4608599    52219.245   0.83181852 
  471000    369.56264   -153.19755    55322.744   0.78515511 
  472000    354.93564    -5.119503    52679.763    0.8245469 
  473000    390.77368   -89.281135    52673.259   0.82464871 
  474000    391.96917    5.0272884    51623.986   0.84140993 
  475000     370.8255    11.309025    49433.371    0.8786966 
  476000    366.57439   -62.659782    49284.997   0.88134195 
  477000    375.02569    4.2607377    48128.052   0.90252842 
  478000    383.65522    296.42387    48159.532   0.90193847 
  479000    333.30127    5.6352509    50324.543    0.8631362 
  480000    344.53028    54.970244    50598.036   0.85847078 
  481000    376.43407    21.617903    50938.542    0.8527322 
  482000    364.05418   -7.2040667    49192.204   0.88300445 
  483000    362.69155    42.369291     50053.89   0.86780339 
  484000    384.00985    4.9049139    49924.291   0.87005612 
  485000    379.34753    -26.79477    50599.499   0.85844594 
  486000    371.61079    7.8901487    50545.314   0.85936621 
  487000     415.0748    10.431231    51888.675   0.83711783 
  488000    350.14317   -20.173649     52380.33   0.82926043 
  489000    392.11743    5.4514979    52484.259   0.82761833 
  490000    369.00817   -30.823835    52629.881   0.82532839 
  491000    377.18115   -78.678994    53182.232   0.81675653 
  492000    379.67409    5.1311824    52242.943   0.83144119 
  493000    382.58385   -31.020737    51391.108   0.84522278 
  494000    374.11659    2.3255818    51213.833   0.84814848 
  495000     342.1576   -4.6248952    50937.552   0.85274877 
  496000    360.91266    -59.48341    50685.755   0.85698507 
  497000    417.57827    36.481191    50443.093   0.86110769 
  498000    356.62913    5.4659222    50349.345   0.86271102 
  499000    353.60149     -27.6903    52218.345   0.83183285 
  500000     400.2837    61.656606    51750.088   0.83935964 
  501000    403.30794   -1.6427212    51403.147   0.84502482 
  502000    323.16193   -51.808649    49869.608   0.87101016 
  503000    404.71086    12.433823    49392.763   0.87941902 
  504000     383.6903   -6.0608442    48806.029   0.88999118 
  505000    362.06155    53.121245    47964.702   0.90560209 
  506000    369.72506    26.383421    48706.538   0.89180912 
  507000     387.2379    4.0740949    48426.642   0.89696359 
  508000    377.85387    37.749097    49135.581   0.88402202 
  509000    353.57059   -81.825232    48987.193   0.88669982 
  510000     364.3197   -3.2258369    48491.024   0.89577269 
  511000    395.68325   -7.6716002    49349.631   0.88018763 
  512000    363.17237   -17.740298    48127.911   0.90253108 
  513000    352.49357    6.6224391    47533.757   0.91381236 
  514000    385.21682   -3.9601428    49334.411   0.88045919 
  515000    364.75045    140.46202    49468.438   0.87807371 
  516000    382.49795   -3.5696937    50319.091   0.86322973 
  517000    382.51223    16.310065    50618.227   0.85812834 
  518000    353.90015   -221.78091    53783.336   0.80762812 
  519000    356.02318   -10.634911     51502.89    0.8433883 
  520000    376.42374   -10.429222    50740.815   0.85605513 
  521000    369.37709    381.02748    49242.009   0.88211136 
  522000    344.92708    3.8332839    53704.144   0.80881905 
  523000    405.39564   -4.7272985    53621.495   0.81006572 
  524000    349.52695    156.70433    50691.992   0.85687963 
  525000    390.28381     7.878393    51162.482   0.84899977 
  526000    356.83334    6.7525804    52280.961   0.83083658 
  527000     341.2883    -103.2998    52411.411   0.82876867 
  528000    373.15385     2.220718    50476.911   0.86053076 
  529000    361.58461   -16.939341    50333.186     0.862988 
  530000    384.36215   -34.549119    51118.344   0.84973282 
  531000    360.21726   -1.2355103    52065.172   0.83428006 
  532000     414.7193    -53.35764    51466.796   0.84397978 
  533000     360.4379   -11.375544    49680.156   0.87433169 
  534000    375.17184   -2.4593138    48948.104   0.88740793 
  535000    335.95142   -35.747525    48592.498   0.89390207 
  536000    368.60342    6.5143029    50208.393   0.86513295 
  537000    363.99577    1.6216285    49885.192   0.87073805 
  538000    381.65486   -25.662513    51643.397   0.84109369 
  539000    344.03311    3.7939607    50790.451   0.85521853 
  540000    370.76567    12.069176    50602.907   0.85838813 
  541000    352.17023    12.689527     51166.92   0.84892613 
  542000    360.07243   -9.7178035    48374.637   0.89792787 
  543000    348.86808   -74.994775    48337.813   0.89861193 
  544000    386.67598     5.534624    46447.122   0.93519109 
  545000    348.31567   -16.161436    46911.416   0.92593528 
  546000    357.52224   -3.7826303      46788.9   0.92835983 
  547000    385.53156    6.5205791    48667.704   0.89252074 
  548000    378.46688   -95.432144    49396.378   0.87935465 
  549000    371.17685   -9.7668137    47900.105   0.90682338 
  550000    348.00078    17.853968      49122.6   0.88425561 
  551000    379.20886     13.82888    49601.446   0.87571913 
  552000    398.28621   -3.5291744    48892.369   0.88841953 
  553000    375.70732    34.876301    50230.811   0.86474684 
  554000    390.85209    5.7119855    49542.017   0.87676961 
  555000    366.18863    122.58811    46844.024   0.92726736 
  556000    359.61834 -0.0040173447    45242.802     0.960085 
  557000    409.95999   -35.563772    49403.583   0.87922641 
  558000    341.58683   -11.045833    50294.621   0.86364972 
  559000    379.93591    10.966893    47522.669   0.91402558 
  560000    382.71099    25.577599    48702.057   0.89189117 
  561000    387.19015    13.015672    49220.794   0.88249156 
  562000    373.46397   -4.2537424    50096.646   0.86706274 
  563000    403.67926   -7.8002325    52480.755   0.82767359 
  564000    350.52754   -41.187879    51421.607   0.84472146 
  565000    389.54657   -2.1841736    51022.148   0.85133489 
  566000    365.66444   -175.12297    53556.857   0.81104339 
  567000     352.7154    -3.465875    50941.427   0.85268391 
  568000     376.2623   -76.787957    50738.039   0.85610197 
  569000    371.23879    10.452098    50588.182   0.85863799 
  570000    387.57672  -0.35303404    51167.848   0.84891073 
  571000    346.96716    23.157886    49332.417   0.88049476 
  572000    397.94666    4.6776767    48256.228   0.90013117 
  573000    335.74825   -123.45586    48508.744   0.89544548 
  574000    383.45733    3.5259291    48009.794   0.90475154 
  575000    334.89359   -220.96931     50644.74    0.8576791 
  576000    386.54517   -6.3219448    48710.222   0.89174168 
  577000    352.81708   -111.09848    51064.022   0.85063678 
  578000    395.46706      3.40133     50422.73   0.86145544 
  579000    367.57298   -34.848377    49983.732   0.86902144 
  580000    401.86748   -24.942829    50119.126   0.86667383 
  581000    365.04385   -7.8379975    51652.102   0.84095193 
  582000      411.849    245.26792    48060.554   0.90379596 
  583000    354.33178   -4.6752366    47037.837    0.9234467 
  584000     350.6825     39.52793    48061.532   0.90377759 
  585000    377.47501   -22.157548    49332.207   0.88049851 
  586000    399.51735    4.6917974     49629.85   0.87521795 
  587000    369.29118    292.98278    46240.305   0.93937389 
  588000    421.97976   -7.7622547    48234.576   0.90053522 
  589000    346.44008   -13.390489    47812.979   0.90847582 
  590000    378.93826   -42.657461    49110.827    0.8844676 
  591000    350.83024   -5.8564544    48571.035   0.89429708 
  592000    399.76346   -49.900022    48125.846   0.90256979 
  593000    344.15336    13.566625    47089.964   0.92242448 
  594000    376.36768    4.3737217    48538.313   0.89489998 
  595000    383.03559    157.35385    47700.364   0.91062062 
  596000    386.84707   -26.797721    49085.745   0.88491955 
  597000    359.06916   -4.0391487    47469.612   0.91504718 
  598000    371.56556   -82.928748    49000.293   0.88646275 
  599000    376.60461   -10.659583    49279.364   0.88144269 
  600000    357.80058   -11.961315    48584.352   0.89405195 
  601000    369.83751    72.519018    48789.582   0.89029119 
  602000    371.95992    6.4601426    48833.034     0.889499 
  603000    374.85119    22.241549     49697.71   0.87402287 
  604000    361.02179   -35.497239    50399.524   0.86185208 
  605000    380.46917    4.7275678    51257.746   0.84742187 
  606000    395.32872    156.22952    48951.376    0.8873486 
  607000    404.69517   -8.9218283    51563.739   0.84239304 
  608000     342.3143   -2.1912045    52304.232   0.83046693 
  609000    367.33371    44.484573     54002.31   0.80435328 
  610000    387.82037    6.0885982    55596.002   0.78129602 
  611000    353.01852   -18.798598    56438.359   0.76963498 
  612000    402.44842    24.753679    58004.737   0.74885152 
  613000    360.37242    1.6581412    57132.186   0.76028834 
  614000    387.25728   -193.02559    58993.189   0.73630424 
  615000    373.53809   0.30980738    56637.452   0.76692955 
  616000    371.62078    4.0192493    55269.473   0.78591187 
  617000      362.281   -24.770305    52542.587   0.82669959 
  618000    385.91935    3.1525629    51349.638   0.84590539 
  619000    377.00723   -15.679825    50087.419   0.86722247 
  620000    345.06342   -4.4802087    50519.091   0.85981228 
  621000    376.63337    60.936195    51535.252   0.84285869 
  622000    370.99633   -7.3366036    51977.784   0.83568271 
  623000    390.91732   -4.0965897    51777.863   0.83890939 
  624000    393.83416    22.708258    51069.392   0.85054733 
  625000    352.14619   -6.0244499    50934.071   0.85280705 
  626000     427.9258   -19.640007    51286.023   0.84695464 
  627000    349.62348   0.61531562    50975.895   0.85210736 
  628000    361.78293    70.555893    50021.668   0.86836238 
  629000    365.31223   -1.0130846     51546.62   0.84267282 
  630000    394.39125   -1.4508403    51182.625   0.84866563 
  631000    360.19147   -74.016678    51478.006   0.84379599 
  632000    371.04289   -6.0548978    50273.978   0.86400433 
  633000    363.46444    194.38302    49344.991   0.88027041 
  634000    395.85997   -8.9523609    50576.975   0.85882826 
  635000    365.92323   -2.8241772    49263.547   0.88172569 
  636000    359.09534    40.776184    50011.947   0.86853117 
  637000    383.26812    1.4923348    49777.562   0.87262078 
  638000    343.23973   -232.70301    51949.023   0.83614537 
  639000    389.53639   -2.3897813    50476.093   0.86054472 
  640000    349.49952   -17.391787    50626.122   0.85799452 
  641000    392.69366   -58.208382    49628.808   0.87523631 
  642000    362.88487    6.6206914    48739.915   0.89119841 
  643000    380.47914   -171.82804    51006.668   0.85159326 
  644000    346.11825    7.0319761    48490.954   0.89577398 
  645000    403.10217    35.254692    49139.744   0.88394711 
  646000    372.49505   -6.8969079    50062.369    0.8676564 
  647000    337.43179     2.327352    50613.929   0.85820121 
  648000    401.92011    84.463399    51754.596   0.83928652 
  649000    367.20752   -5.0441226    52646.216   0.82507231 
  650000     348.6554     -264.192    55135.402   0.78782294 
  651000    385.07495   -7.2620815    52510.191   0.82720962 
  652000     370.2257   -31.805243    52845.824   0.82195586 
  653000    379.88773   -37.498186    53213.807   0.81627189 
  654000    386.89497   -6.2717728    53213.698   0.81627357 
  655000    341.19076    26.894435    53190.642   0.81662739 
  656000    362.17873   -6.5356543    50642.405   0.85771864 
  657000    404.39192    3.5216347    51075.015   0.85045368 
  658000    398.90296    14.225395     52297.98   0.83056622 
  659000    346.12285   -7.8933613    54536.298   0.79647751 
  660000    345.85468    12.738213    51351.869   0.84586863 
  661000    378.07855   -20.281719    50675.838   0.85715277 
  662000    365.13174    3.3891078    47974.797   0.90541154 
  663000    338.18661     147.2542    46257.281   0.93902914 
  664000     385.2761   -11.130713    48023.649   0.90449052 
  665000    379.08363   -9.2613751    48569.647   0.89432264 
  666000    375.36515    294.95039    50013.958   0.86849625 
  667000    378.26723   -6.6232728     52977.11   0.81991893 
  668000    338.61502   -7.1039997    53019.432   0.81926443 
  669000    399.78735    24.199656    52345.757   0.82980814 
  670000    354.12577   -4.1420394    52231.925   0.83161659 
  671000    364.70791    285.49485    51032.817   0.85115692 
  672000    381.21441    5.9163834    51294.772   0.84681019 
  673000    358.09534    47.066892    50106.183    0.8668977 
  674000    373.77652     4.972306    52321.063   0.83019979 
  675000    376.12944   -7.4676659    51152.995   0.84915722 
  676000    359.58767   -29.335613    49561.789   0.87641983 
  677000    411.45984    4.2375207    49537.001    0.8768584 
  678000    379.01471     -39.3602    50303.478   0.86349765 
  679000    353.70493    6.4878107    49866.246   0.87106888 
  680000    370.99663   -255.78019    53452.215   0.81263114 
  681000    381.56249   -1.1933216     49113.72    0.8844155 
  682000    378.52992   -64.249448    50234.432   0.86468451 
  683000    355.85694    5.6844746    47594.813    0.9126401 
  684000    374.78234   -250.46221     49156.35   0.88364851 
  685000    358.09063    5.8007099     48110.84   0.90285131 
  686000     368.3587   -141.67067    49321.265   0.88069385 
  687000    396.80234    -6.746708     47450.44    0.9154169 
  688000    371.75121    112.86232    47047.539   0.92325627 
  689000    350.78185    2.6632917    47234.605   0.91959983 
  690000    377.61194   -141.73446    47826.608   0.90821693 
  691000     363.4606    4.2794195     48991.19   0.88662748 
  692000    330.88415   -191.55594    52665.626   0.82476823 
  693000    376.56339    3.5952651    49737.988   0.87331509 
  694000     393.7262     154.6243    49170.028   0.88340269 
  695000    359.10762   -4.4016171     51816.98   0.83827608 
  696000    393.91707    94.257773     49779.51   0.87258663 
  697000    332.93716 -0.0085700841    48351.442   0.89835863 
  698000     410.7544    285.86874    46677.972   0.93056603 
  699000    400.65805    5.3163341    49154.099   0.88368897 
  700000    360.18025   -117.30096    49555.806   0.87652565 
  701000    394.95695   -5.1681601    49751.236   0.87308253 
  702000    375.78241    70.869333    49971.877   0.86922761 
  703000    346.78776   0.54780803    51780.283   0.83887018 
  704000    382.10615    47.085645    51164.818     0.848961 
  705000    364.45926   -2.6959246    49490.652   0.87767958 
  706000    404.94216   -51.776131    48541.729   0.89483699 
  707000    367.65972   -8.9361577    48643.198   0.89297039 
  708000     381.3025    -27.12458    50134.029   0.86641621 
  709000    357.34927    9.8415624    49161.344   0.88355874 
  710000    392.39337   0.34163752    49345.586   0.88025979 
  711000    355.46083    222.36484    47249.495   0.91931004 
  712000    380.53949   -6.9509517    48256.578   0.90012465 
  713000    369.07798    6.5885428    49872.681   0.87095649 
  714000    390.06606    39.953268     48859.45   0.88901809 
  715000    362.50017   -7.5020004    47836.207   0.90803469 
  716000    384.90057    339.52045    45436.947    0.9559827 
  717000    359.83288    1.6511175    47085.421   0.92251347 
  718000    387.00805    -7.458685    46983.288   0.92451884 
  719000    355.70058   -146.02126    47159.749    0.9210595 
  720000    389.03214  -0.97921102    45622.462   0.95209537 
  721000    347.36795   -48.828736    47946.358   0.90594858 
  722000     368.9241    -33.44883     48109.27   0.90288078 
  723000     367.6012   -3.5051818    48011.933   0.90471123 
  724000    396.22415    407.17802    45171.329   0.96160409 
  725000    361.28886    3.9281384    48411.902    0.8972367 
  726000    373.10519    10.992582    47899.902   0.90682721 
  727000    372.68854   -83.305228    50052.248   0.86783185 
  728000     348.3222   -5.4846805     49474.76   0.87796152 
  729000    366.87339   0.91592369    49246.882   0.88202406 
  730000    378.25083    14.552093    47521.772   0.91404282 
  731000    363.63605    1.6965739     48172.04   0.90170428 
  732000     377.4894    70.172509    48632.528    0.8931663 
  733000    367.14875    4.9762126     51020.44    0.8513634 
  734000    367.89877   -270.60897    53118.861   0.81773092 
  735000     343.3449   0.22554066    50266.711   0.86412925 
  736000     366.3802   -51.336461    51058.029   0.85073663 
  737000    382.30199   -1.8015572    51496.683   0.84348996 
  738000    369.59632    15.416033    52618.543   0.82550623 
  739000    372.44289    34.804739    53299.386   0.81496126 
  740000    411.81889    2.3268436    51141.751   0.84934391 
  741000    342.21029   -86.687529    51944.398   0.83621982 
  742000    389.50547   -4.0776069    53583.479   0.81064044 
  743000    349.45208   -203.43309    52724.727   0.82384372 
  744000    391.63264    2.4425332    52116.209   0.83346306 
  745000    358.37875    15.715974    50917.512    0.8530844 
  746000    362.10903    1.6053544    50714.308   0.85650258 
  747000    367.16017   -274.55563     53242.13   0.81583766 
  748000     367.2568   -5.6084215    50201.509   0.86525158 
  749000    368.66503    -90.42109     51271.26    0.8471985 
  750000    380.44991    5.0835054    48941.499   0.88752769 
  751000    352.70055   -7.8076628    49703.504   0.87392098 
  752000    377.70663     25.25174    49147.742   0.88380326 
  753000    347.32936    1.5670795    50294.723   0.86364797 
  754000    390.10641    92.976638    48973.662   0.88694481 
  755000    398.90593   -5.9157256    49429.044   0.87877352 
  756000      361.624    399.64833    47259.866    0.9191083 
  757000    381.83766    4.1014739    49390.415   0.87946083 
  758000    351.47575    1.8430561    49530.416   0.87697496 
  759000    370.35046    12.689322    49635.806   0.87511292 
  760000    343.46951   -18.236117    49269.112    0.8816261 
  761000    379.01224   -2.4138381    47991.662   0.90509336 
  762000     343.0751   -9.8747402    49082.764   0.88497329 
  763000    424.74983    33.378087    47464.802   0.91513991 
  764000    377.79334    6.4196785    46838.521   0.92737632 
  765000    370.78459    315.83316    45784.591   0.94872388 
  766000    372.13584     3.423973    48897.276   0.88833037 
  767000    365.96403    59.338536    49089.913    0.8848444 
  768000    369.51113   -4.4360446    48499.007   0.89562525 
  769000    351.75756   -96.527872    50822.023   0.85468725 
  770000    373.65722    5.6066029    48828.372   0.88958392 
  771000    380.16334   -104.67282    47527.781   0.91392727 
  772000    367.58299   -6.6323332    47882.569   0.90715548 
  773000    352.17674    32.788077    47698.244   0.91066109 
  774000    346.69705    8.0441551    47160.352   0.92104772 
  775000    405.93429   -54.486462    48345.401   0.89847087 
  776000    369.60067     9.414013    46574.431   0.93263479 
  777000     391.1288   -19.127584    46879.315   0.92656932 
  778000    375.05136    16.337179    47363.621    0.9170949 
  779000    395.07363    11.334519    47800.562   0.90871181 
  780000    346.15989   -56.495842    49864.528   0.87109889 
  781000     417.8866    3.2190758    50266.409   0.86413443 
  782000    365.76273   -183.48265    50325.885   0.86311319 
  783000    364.78757   -5.7371964    49531.681   0.87695257 
  784000     352.5355   -219.39983    50643.135   0.85770629 
  785000    409.58377   -4.6457002    48200.663   0.90116883 
  786000     365.7568   -25.228663    48193.952   0.90129432 
  787000    375.28336   -7.1056648    47893.645   0.90694569 
  788000    376.40121   -19.308474    48069.765   0.90362278 
  789000    367.51634   -9.9415687    48552.073   0.89464635 
  790000    351.18202    16.085083      48605.7   0.89365928 
  791000    383.52657    5.3983392     49340.45   0.88035142 
  792000    352.39308    33.487027    49308.776   0.88091691 
  793000    376.22335    -3.087862    49338.732   0.88038207 
  794000     379.6715    23.963104    48622.489    0.8933507 
  795000    385.54753    2.6881264    47108.724   0.92205714 
  796000    343.81419   -155.62048    49393.492   0.87940604 
  797000    354.29144    2.4907211    49685.756   0.87423315 
  798000    376.90489    374.13895     47990.71   0.90511133 
  799000    371.01899  -0.11672394    50307.463   0.86342926 
  800000    383.23648   -14.024413    51223.475   0.84798884 
  801000    356.92896   -10.784739    51286.533   0.84694621 
  802000    393.09481    0.4003727    52804.635   0.82259701 
  803000    398.16745    188.98798    50502.001   0.86010325 
  804000    381.49333    3.7409669    50295.889   0.86362795 
  805000    363.31545   -25.704438    49810.779   0.87203887 
  806000    383.63932    30.369799    49100.569   0.88465237 
  807000    360.38648    -3.711469    49511.176   0.87731576 
  808000    408.96606   -15.744546    49573.464   0.87621344 
  809000    364.27994   -1.0182594    48476.917   0.89603336 
  810000    393.90824    7.7518979    48961.797   0.88715973 
  811000    398.90665     -31.7638    49332.635   0.88049088 
  812000    335.89061   -4.9043624    47868.438   0.90742329 
  813000    365.23167   -150.01659    48941.191   0.88753327 
  814000    346.43266   -3.4174492     48135.07   0.90239685 
  815000    369.94344     -21.5101      50465.7   0.86072194 
  816000    354.76248   -41.351009    50341.309   0.86284874 
  817000    363.04495    4.5845524    48786.035   0.89035591 
  818000    370.01333   -201.43469     51551.09   0.84259974 
  819000    375.71301   -4.8256002    51476.796   0.84381583 
  820000    360.51747    15.885646    50494.621   0.86022895 
  821000    398.92952    -22.13891    50543.768   0.85939249 
  822000    345.99541   -4.1678017    50040.971   0.86802743 
  823000    383.89641    107.00753    47874.107   0.90731583 
  824000    375.79512   -5.3898115    48752.194   0.89097396 
  825000    379.35804   -10.468199    49907.942   0.87034115 
  826000     353.9608   -102.44997    50654.083    0.8575209 
  827000    365.88168    0.9199888     50894.49   0.85347029 
  828000    366.58581   -27.737696    49800.652    0.8722162 
  829000    408.84946    27.763541    47972.719   0.90545077 
  830000    373.35926    2.9693087    50119.099    0.8666743 
  831000    362.63266    85.920357    47866.165   0.90746637 
  832000    367.09374    -5.001323    49036.949   0.88580011 
  833000    399.79379   -4.4968416    48417.656   0.89713006 
  834000    362.99758    284.17838    47655.745   0.91147322 
  835000    413.25911    5.4652839    51298.976   0.84674079 
  836000    394.65261     7.823513    50024.041   0.86832119 
  837000    345.84663   -168.16498    50774.935   0.85547987 
  838000    376.95974   -1.1979648    50623.047   0.85804664 
  839000    363.71272   0.65400321    50506.441   0.86002764 
  840000     375.1042   0.75127285    52810.745   0.82250185 
  841000    336.24986    166.28273    50323.523    0.8631537 
  842000    378.63265   -8.2517188    50418.165   0.86153344 
  843000    361.87481    3.0295934    51282.645   0.84701043 
  844000    380.42913   -13.078363    52768.055   0.82316725 
  845000    357.74271     268.4862     51297.61   0.84676333 
  846000    385.74196    4.6020344    51737.675   0.83956102 
  847000    363.65129   0.10278861    50474.687   0.86056868 
  848000    378.69438   -136.46941    54037.664   0.80382704 
  849000    383.05706   -24.703671    51492.622   0.84355648 
  850000     378.3573    3.2696826    51369.896   0.84557179 
  851000    396.22415   -3.5390273    50394.623   0.86193591 
  852000     380.5732    142.19669    48871.676   0.88879569 
  853000    357.54104   -9.1866736    49909.582   0.87031254 
  854000    356.61748     2.502591    49186.232   0.88311166 
  855000    406.79977    4.7182912     46950.48   0.92516487 
  856000    339.78549   -44.633142    48506.829   0.89548082 
  857000    413.34769   -109.87814     48465.87   0.89623761 
  858000    372.73059   -15.427712    49078.667   0.88504717 
  859000    379.61698  -0.59239035    50307.405   0.86343024 
  860000    376.22061   -2.7313982    50273.607   0.86401071 
  861000    373.47164    6.0986581    49346.035   0.88025178 
  862000    365.05499    98.056327    48045.485   0.90407944 
  863000     381.6651    98.803472    48349.062   0.89840286 
  864000     354.7336    7.7022219    47494.717   0.91456351 
  865000    366.07872   -3.2263378    47844.225    0.9078825 
  866000    384.73214   -9.3713605    47942.805   0.90601572 
  867000    383.35838   -148.27806    48366.615    0.8980768 
  868000    364.39032    33.440272    48252.502   0.90020067 
  869000      404.755    4.5078734    46717.649   0.92977571 
  870000    385.83026    3.3525442    47728.402   0.91008568 
  871000    356.97882    -22.11729    47848.112   0.90780876 
  872000    398.45373    155.12261    46628.191   0.93155953 
  873000    366.20111   -21.571491     48142.65   0.90225477 
  874000    394.07162    3.2269129    48590.158   0.89394514 
  875000    377.19171  0.037237053    48476.863   0.89603436 
  876000    369.94044   0.88944781    49002.931   0.88641504 
  877000    353.82747    3.0035708    49497.515   0.87755789 
  878000    400.10688  -0.79331048    49269.965   0.88161083 
  879000    315.43011     11.21969    49031.372   0.88590086 
  880000    414.32356   -35.911728    50187.833   0.86548735 
  881000    345.79731    16.416185    50500.171   0.86013442 
  882000    391.78926   -113.37939    49913.114   0.87025096 
  883000    360.56368   -11.547049    47404.197    0.9163099 
  884000    370.99904   -0.1534784    46881.528   0.92652558 
  885000    339.95815  -0.13436338    47398.909   0.91641213 
  886000    377.16937   -2.8593272    50278.455   0.86392741 
  887000    371.04695    10.231259    51819.016   0.83824315 
  888000    349.51848    89.343815    52599.945   0.82579811 
  889000    387.26113    31.606382    52580.725   0.82609996 
  890000    359.80267    10.903586    52106.584   0.83361702 
  891000    380.48119   -3.2604235    51230.391   0.84787437 
  892000     375.4107     2.221211    51578.838   0.84214644 
  893000    361.09056    1.8823335    49858.426    0.8712055 
  894000    399.54671   -27.644471    48238.819   0.90045602 
  895000    390.63719     -285.328    49475.304   0.87795186 
  896000    373.30207   -27.071361    49114.013   0.88441022 
  897000    355.44392   -4.0542896    48806.032   0.88999111 
  898000    381.78036   -2.5963311    48016.642   0.90462251 
  899000    358.11947    -7.546328    46916.338   0.92583814 
  900000     376.4509    11.708579    49026.429   0.88599018 
  901000     374.6436   -10.479459    48788.567   0.89030972 
  902000    381.78031     3.388876    47471.672   0.91500749 
  903000    360.93114    33.343621    48676.349   0.89236223 
  904000    381.72761   -183.42551    49797.067   0.87227898 
  905000    351.57364    5.5680738    49088.147   0.88487624 
  906000    374.18901  -0.87876457    47759.544   0.90949225 
  907000    344.24249    5.1393231    48864.613   0.88892416 
  908000    372.39059   -333.38061    51343.389   0.84600833 
  909000    413.28908    25.755249    47306.799   0.91819646 
  910000    369.13067    3.8434716    48552.964   0.89462993 
  911000    379.85815    1.6690862    49926.784   0.87001267 
  912000    338.85243    6.0009998    50634.959   0.85784478 
  913000     375.4586    26.588922    48882.412   0.88860049 
  914000     369.9267    256.14642    48415.681   0.89716667 
  915000    380.31965   -36.620543    48894.379   0.88838301 
  916000    354.39306    -5.031787     48895.14   0.88836918 
  917000    400.66651   -1.9011227    48254.362   0.90016598 
  918000    372.11491    1.5447623    47807.648   0.90857712 
  919000    379.22751   -5.0231103    50615.593     0.858173 
  920000    379.89561    17.018557     52255.46   0.83124203 
  921000    358.22528    -101.7786    49811.817    0.8720207 
  922000     357.0362   -38.116015    48515.831   0.89531467 
  923000     366.2223    7.4681001    49504.294   0.87743772 
  924000    369.43634   -2.7530763    48973.522   0.88694734 
  925000    363.76396    2.7503427    49619.502   0.87540047 
  926000    356.29709    2.4545998    49517.559   0.87720267 
  927000    382.64672  -0.68113968    50832.395   0.85451285 
  928000    353.91292  -0.56694621    50534.865    0.8595439 
  929000     344.2127    1.0432804    49627.428   0.87526066 
  930000    392.24005   0.61539601    50856.169   0.85411339 
  931000    356.92188    9.2998772    50455.269   0.86089987 
  932000    342.18605   -30.715732    51937.652   0.83632843 
  933000    418.89097    376.47611    49995.415   0.86881837 
  934000    346.83662   -94.598994    52968.035   0.82005941 
  935000    392.83014    24.114303    50272.467    0.8640303 
  936000    353.70862   -5.2601285    50748.703   0.85592206 
  937000    409.31452    3.2218673    49321.575   0.88068832 
  938000    380.05042    4.8013758    48962.407   0.88714869 
  939000    378.83606    25.794265    46961.393   0.92494989 
  940000    382.83322    30.744751    47118.307    0.9218696 
  941000    356.01998    6.2780996    47476.997   0.91490485 
  942000    372.16989    1.1773388    47500.034   0.91446113 
  943000    378.75744   -24.943253    47501.417   0.91443452 
  944000    364.54672   -99.074233    49167.839   0.88344201 
  945000    372.79756    2.7223428    48881.208   0.88862238 
  946000    360.10781   -3.9302977    49208.042   0.88272025 
  947000    376.83513    12.128417     49140.15   0.88393981 
  948000    359.82809    45.056846    48422.447   0.89704131 
  949000    377.57663   -4.2621966    50158.119   0.86600007 
  950000    374.51846   -2.6361368    51765.798   0.83910491 
  951000    378.90942   -38.824072    51200.487   0.84836957 
  952000    379.26767   -58.723796    51934.463   0.83637978 
  953000    353.97087    -3.047162    52681.679   0.82451691 
  954000    356.23041    15.988675    51362.225   0.84569809 
  955000    393.93702   -29.361702    52291.677   0.83066632 
  956000     365.3031    1.0694037    52714.874    0.8239977 
  957000    375.66688    10.009309    50970.426   0.85219879 
  958000    380.12602   -19.690606    51015.588   0.85144436 
  959000    330.41398    2.9910451     48434.56   0.89681697 
  960000    398.76469   -9.2860582    50154.398   0.86606434 
  961000    348.48204    207.32415    49193.994   0.88297231 
  962000    380.67041    2.9589069    49423.092   0.87887935 
  963000    369.38027    10.097389    48941.643   0.88752506 
  964000    385.80066    190.24083    47584.246   0.91284278 
  965000    366.10692   -3.0598296    47623.354   0.91209316 
  966000     353.6286   -3.8810041    47272.921   0.91885448 
  967000    375.47306   -11.931365    47494.991   0.91455823 
  968000    397.92063    3.4453967    47224.707   0.91979257 
  969000    367.85228    10.002946     46752.71   0.92907845 
  970000     395.7352    220.53132    45695.627   0.95057094 
  971000    373.23362    3.9629837     47211.39   0.92005202 
  972000    394.19092   -13.454973    47627.295   0.91201768 
  973000    356.23209   -49.480408    48985.569   0.88672921 
  974000    380.92906   -4.2251671    48569.464   0.89432601 
  975000    341.24584   0.06996705    49283.719   0.88136481 
  976000    406.65875    25.169295    48075.328   0.90351823 
  977000    369.63845    2.8170505     47266.16    0.9189859 
  978000     364.2633    53.430388     47538.07   0.91372946 
  979000    377.49897   -25.361848     50312.87   0.86333646 
  980000    361.17631    3.5096533    49864.819   0.87109381 
  981000    401.29418    25.444501    48900.553   0.88827083 
  982000    356.82814     239.7725    49040.329   0.88573907 
  983000    393.48344   -8.2244764    49123.464   0.88424007 
  984000    354.75152  -0.99663121    50225.788   0.86483333 
  985000    379.13974    13.783354    50126.013   0.86655476 
  986000    366.82634   -197.90315    51702.109   0.84013856 
  987000    376.28295   -1.1502249    53124.198   0.81764877 
  988000      388.484    2.7738352    52107.499   0.83360238 
  989000    384.46686    -35.12884    52108.281   0.83358986 
  990000    333.71829     62.08004    50781.815   0.85536398 
  991000    375.39271    -3.888844     48876.61   0.88870598 
  992000    366.76011   -55.996772     50010.05   0.86856412 
  993000    380.07309    18.583202    47823.347   0.90827887 
  994000    344.71623   -2.9591802    48545.103    0.8947748 
  995000    391.35522   -182.78862    50506.713     0.860023 
  996000    372.32534    3.3845499    49185.333    0.8831278 
  997000    343.97964   -58.090511    48731.394   0.89135424 
  998000    379.67714   -13.330564    49073.586   0.88513879 
  999000    400.13024   -8.1419689    48094.908    0.9031504 
 1000000    350.30069     149.1335     47809.67    0.9085387 
 1001000    389.32681    4.6559293    48694.238   0.89203439 
 1002000     367.2372     26.19561    47656.842   0.91145223 
 1003000    364.83541   -65.371274    47852.979   0.90771642 
 1004000    382.91315    4.0861186    46325.123   0.93765396 
 1005000    334.27843   -11.988704    47175.156   0.92075869 
 1006000    378.78665   -102.79376    46968.279   0.92481427 
 1007000    343.27689    4.9218369     46531.42   0.93349688 
 1008000    354.06547    12.086673     46854.86   0.92705292 
 1009000    374.55486    23.189978      47467.7   0.91508404 
 1010000    365.85798  -0.21033954    46997.637   0.92423658 
 1011000    379.85153   -3.0276906     48489.87   0.89579401 
 1012000    349.07572   -184.75664    48669.841   0.89248154 
 1013000    385.98173   -1.9474685    48050.281    0.9039892 
 1014000    373.09204   -3.5571738    48331.972   0.89872053 
 1015000    366.99613    -21.55587     48489.75   0.89579622 
 1016000    385.39102    474.27466    46722.422   0.92968073 
 1017000    354.24968   -2.1685038    50946.564   0.85259793 
 1018000    363.59417    3.2209356    52645.718   0.82508011 
 1019000     388.5789     -2.48547    52042.552   0.83464267 
 1020000    367.68066    16.110453    50550.545   0.85927728 
 1021000    375.78928    12.200867    51249.163   0.84756379 
 1022000    373.36485  -0.89507933    50478.319   0.86050676 
 1023000    375.00925   -2.0745511    51449.352   0.84426593 
 1024000    381.96152   -13.155764     50248.16   0.86444827 
 1025000    411.90999   -29.477072      52956.2   0.82024267 
 1026000    361.41148     4.317945    51528.504   0.84296907 
 1027000    387.82266    1.9811141    50097.799   0.86704278 
 1028000    327.65971   -349.08526    50807.225   0.85493619 
 1029000    382.93184    4.1030464    47793.677   0.90884272 
 1030000    327.49798     2.126311    48395.574    0.8975394 
 1031000    418.74765   -28.419099    48216.498   0.90087288 
 1032000    349.24475    3.4193133    48246.004   0.90032192 
 1033000    332.39209   -40.609028    48714.193   0.89166898 
 1034000    372.30414    14.539009     49469.58   0.87805344 
 1035000    344.45903    3.4081823    47859.926   0.90758467 
 1036000    346.50941   -307.91129    51147.375   0.84925052 
 1037000    364.76181   -5.1765834    48632.484    0.8931671 
 1038000      357.382   -51.004213    49462.054   0.87818704 
 1039000    375.50195   -8.4531334      49963.3   0.86937682 
 1040000     369.9969  -0.90758269    52708.953   0.82409027 
 1041000     362.0318   -266.36926    55371.884   0.78445832 
 1042000    350.15587   -3.8834167    52365.093   0.82950173 
 1043000    380.05116   -9.8389559    51470.566   0.84391796 
 1044000    382.41302    -31.20547    49829.951   0.87170334 
 1045000    360.96082    4.3487861    47891.604   0.90698435 
 1046000    402.97635    9.4904241    46800.737   0.92812503 
 1047000    363.85405    6.6712857     46499.86   0.93413045 
 1048000    374.66384   -6.1760833    47306.827    0.9181959 
 1049000    389.92893    198.67066    47777.483   0.90915076 
 1050000    354.23764  -0.98900291    49265.598   0.88168898 
 1051000    398.13087    28.354293    49724.202   0.87355721 
 1052000    375.56261   -1.9033367    48797.475   0.89014719 
 1053000    350.37626    4.6669641    49721.148   0.87361087 
 1054000    378.67423   -128.62511    50727.006   0.85628817 
 1055000     388.6117   -7.1218603     50290.31   0.86372376 
 1056000    363.13784     5.446514    50387.781   0.86205294 
 1057000    374.20738   -33.133424    51011.693   0.85150939 
 1058000      350.768   -3.6081204    51140.067   0.84937188 
 1059000    381.91686   -8.9469257    50030.779   0.86820424 
 1060000    353.48645    11.372597    48146.327   0.90218585 
 1061000    420.88599   -2.2468272     49639.96   0.87503969 
 1062000    376.24719    64.949055    49313.493   0.88083266 
 1063000    356.25583   -3.1003378    49865.481   0.87108224 
 1064000    356.44398   -291.37853    54075.579   0.80326343 
 1065000    381.09025   -3.1010061    51820.101   0.83822559 
 1066000    380.39948   -3.9243961    50439.219   0.86117383 
 1067000    371.40278    7.3839433     48804.23   0.89002397 
 1068000    365.69689   0.76687949    47411.364   0.91617138 
 1069000    384.83026    102.06546    48334.782   0.89866827 
 1070000    341.42116   -1.4086359    49451.177    0.8783802 
 1071000    413.99841    111.80106    49651.175   0.87484203 
 1072000    369.96298   -3.3559311    49132.552    0.8840765 
 1073000    390.00966   -79.634163    48438.221   0.89674919 
 1074000    363.30923    2.6665469    47080.292   0.92261396 
 1075000    388.95927   -28.481546    48867.848   0.88886531 
 1076000    361.62845   -2.5708812    47972.663   0.90545182 
 1077000    382.03877   -23.848713    50160.073   0.86596634 
 1078000    376.16355   -9.5253419    50594.568   0.85852962 
 1079000    376.21831    24.363198    51154.658   0.84912961 
 1080000    383.03852    6.8180768    50096.092   0.86707233 
 1081000    368.08396    33.252688    50944.456    0.8526332 
 1082000    368.90795   -10.240067    53695.831   0.80894428 
 1083000    381.78138   -4.8964647    51931.875   0.83642146 
 1084000    406.10433   -3.3166426    51510.689    0.8432606 
 1085000     353.9241    1.2689626     51792.88   0.83866614 
 1086000    360.36731    16.059755    52027.265   0.83488792 
 1087000      417.077    1.4908804    51513.106   0.84322104 
 1088000    348.62004    -87.04859    53950.827   0.80512084 
 1089000    397.15247   -4.2224633    52091.757   0.83385429 
 1090000     341.5113    253.19934    49021.278   0.88608329 
 1091000    348.98503   -5.8387511    49309.518   0.88090367 
 1092000    400.42273    51.965549    49491.697   0.87766105 
 1093000    381.67986    7.7956697    48340.752   0.89855728 
 1094000    369.97147   -55.489434    49572.181   0.87623611 
 1095000    381.27902    8.5232122    48597.918   0.89380238 
 1096000    366.78785    58.331299     47549.09    0.9135177 
 1097000    376.44225   -7.8838193    47936.323   0.90613824 
 1098000    365.04755   -27.845596    49675.295   0.87441726 
 1099000    331.58648   -6.4046824        49350   0.88018106 
 1100000    370.22263   -55.629826    49051.181    0.8855431 
 1101000    373.29994   -3.0769597    49017.989   0.88614274 
 1102000    399.58398    24.192802    49104.054    0.8845896 
 1103000    367.33081   -5.4767492    48659.767   0.89266632 
 1104000    434.41427    24.324258     48759.38   0.89084264 
 1105000    322.04186     8.454254    49159.172   0.88359778 
 1106000    402.75043    9.5330507    49440.782   0.87856488 
 1107000    361.55817    27.367353    48615.274   0.89348328 
 1108000    351.74342    1.5325454    49618.192   0.87542357 
 1109000    338.54656   -28.220245    49122.328   0.88426052 
 1110000    385.00514    2.4560716    48934.872   0.88764788 
 1111000    375.91755    5.9962817    49453.167   0.87834485 
 1112000     393.3498   -24.122408      49097.7   0.88470406 
 1113000    363.92263    4.0456491    50213.828   0.86503931 
 1114000    394.78352    54.091254    50411.245   0.86165171 
 1115000    364.88992 -0.021246094    49228.806   0.88234792 
 1116000    443.21617   -21.714345    49647.561   0.87490572 
 1117000    360.98127    5.5516046    49106.618    0.8845434 
 1118000     341.8357   -87.646338    51646.284   0.84104667 
 1119000    376.47306   -5.4088783    50063.787   0.86763184 
 1120000    389.01975    51.991362    50185.678   0.86552452 
 1121000    364.66986   -3.7519305    51007.231   0.85158387 
 1122000    381.28162    35.789108    49169.092   0.88341951 
 1123000    402.58481   -18.680443    48842.088   0.88933412 
 1124000    353.71043   0.77997525    48234.714   0.90053265 
 1125000    414.66032    47.413312    48672.511   0.89243259 
 1126000    369.70239    5.7126675    48021.588   0.90452934 
 1127000     373.0422    15.355485    48836.814   0.88943016 
 1128000    407.65835   -6.0035236    48639.505   0.89303817 
 1129000    379.33594    366.49067    46949.618   0.92518186 
 1130000    388.98672    -2.494914    48463.501   0.89628141 
 1131000    368.03104    47.807358    48568.849   0.89433734 
 1132000    386.86798    6.3390394    48047.866   0.90403463 
 1133000    362.88232    50.864406    49032.693     0.885877 
 1134000    373.29873    3.9666493    48920.865   0.88790202 
 1135000    376.36853    21.244817    47694.418   0.91073414 
 1136000      413.993    6.2019291    46132.302    0.9415731 
 1137000    379.53395    3.8266413    46657.196    0.9309804 
 1138000     384.2581   -3.9702906    46207.213   0.94004664 
 1139000    354.55258   -1.3606318    47511.508   0.91424029 
 1140000    427.78175    97.519343    48230.349   0.90061415 
 1141000    352.09221     5.876863    48620.675   0.89338404 
 1142000    336.75346    165.92235    46458.956   0.93495289 
 1143000     384.6291    5.4757315    47724.446   0.91016111 
 1144000    369.63525   -128.69674    49574.108   0.87620206 
 1145000    356.81605    5.2255143     48249.55   0.90025575 
 1146000    378.77932   -91.356789    50992.917   0.85182291 
 1147000    365.46814    7.8584369    49137.537   0.88398682 
 1148000    373.38242   -2.1821349    49518.216   0.87719104 
 1149000    389.74993   -7.2542159    51194.765   0.84846439 
 1150000    379.77428   -20.060012    50432.423   0.86128987 
 1151000     420.7233    19.890017    51399.175   0.84509012 
 1152000    364.65917    6.5358996    54083.217   0.80314999 
 1153000    364.91602   -53.455857    53877.335   0.80621907 
 1154000    336.46751   -5.1955113    52344.009   0.82983585 
 1155000     375.1794   -144.30687    52154.512   0.83285095 
 1156000    387.35849    4.1694766     51281.72    0.8470257 
 1157000    370.51058    225.29646    51052.976   0.85082082 
 1158000    384.94118    1.9310011    51431.541   0.84455831 
 1159000    374.98265   -28.941272    50628.982   0.85794604 
 1160000    354.87981   -16.125283    51228.061   0.84791292 
 1161000    387.95196    7.4635262    47871.822   0.90735914 
 1162000    350.51044   -2.7230369    46874.995   0.92665472 
 1163000    378.32068   -1.1330729    49505.403   0.87741806 
 1164000    399.19897    30.128804    48609.446   0.89359042 
 1165000    357.95107   -7.4713654    48880.519    0.8886349 
 1166000    373.94965    6.8896577    49472.577   0.87800025 
 1167000    385.75075    -243.4101    54019.361   0.80409938 
 1168000    352.62532   -1.4355897    54819.472   0.79236324 
 1169000    418.10342    20.499898    51683.598   0.84043946 
 1170000    346.06373   -15.594061    49917.256   0.87017874 
 1171000    338.11616   -4.9911309    51291.265   0.84686807 
 1172000    360.01178   -14.928533    50920.799   0.85302933 
 1173000    377.01594   -12.820528    47669.489   0.91121043 
 1174000    363.79725   0.49545385    48479.708   0.89598178 
 1175000    383.39994    88.730359    49734.946    0.8733685 
 1176000    368.80958   -32.932715    47910.327   0.90662989 
 1177000    381.59257    0.6250484     47077.04    0.9226777 
 1178000    365.58396    2.7993399    47915.928   0.90652392 
 1179000    341.65967   -30.492647    49418.963   0.87895278 
 1180000    351.25063    7.5925129    49932.677   0.86991001 
 1181000    361.58353    71.011446    48436.093   0.89678857 
 1182000     406.9508  -0.50124893     48929.24   0.88775005 
 1183000    376.60868    -6.457381    49135.023   0.88403204 
 1184000    364.15123   -85.078413    49074.576   0.88512095 
 1185000    399.55106   -29.819111    48092.295   0.90319946 
 1186000     367.8564    2.9376045    48271.844   0.89983998 
 1187000    357.07254   -19.677593    47429.615   0.91581884 
 1188000    398.96699   -9.8391749    47805.273   0.90862226 
 1189000    394.31477   -7.0846309    49193.741   0.88297686 
 1190000    349.22783   -75.950883    52332.258   0.83002219 
 1191000    423.64104   -4.0535919     50272.11   0.86403644 
 1192000    320.27654    6.8766987    50603.876    0.8583717 
 1193000    382.74864     18.05975    51248.968   0.84756701 
 1194000    383.84849    10.746741    50421.691   0.86147319 
 1195000    333.96115     -5.97467    50656.478   0.85748036 
 1196000    349.65184   -279.92569    51639.649   0.84115473 
 1197000    359.87876   -10.556866    47951.915   0.90584359 
 1198000    389.53205   -12.134746    46660.903   0.93090644 
 1199000    349.50008    166.08521    47196.221   0.92034773 
 1200000    385.08912   -13.455884    46887.475   0.92640806 
 1201000    374.47719     7.204643    48038.981   0.90420184 
 1202000    361.99045    206.57646    48606.024   0.89365332 
 1203000    392.45746    32.606295     48651.27   0.89282221 
 1204000    370.21614   -3.7419768    49335.552   0.88043882 
 1205000    356.58933    40.296154    49373.376   0.87976433 
 1206000    408.46945   -5.4759217    50574.764   0.85886579 
 1207000    334.53864   -4.8004934    50645.402   0.85766788 
 1208000    423.18948    1.6890813    49714.253   0.87373202 
 1209000    344.79009   -79.589621    51344.143   0.84599591 
 1210000    371.82661    21.098165    50365.311   0.86243754 
 1211000    357.25003   -2.3365318    52379.812   0.82926864 
 1212000    361.57701   -13.204507    53830.964   0.80691357 
 1213000    390.43231   -3.0620028    50878.247   0.85374276 
 1214000     396.9059   -8.2574881    51367.769    0.8456068 
 1215000    346.83165   -4.6382196     50973.94   0.85214003 
 1216000    402.93591     15.41121     50544.57   0.85937887 
 1217000    354.03304   -41.892958    52110.073   0.83356119 
 1218000    384.11811    -13.75682    48552.738   0.89463409 
 1219000    345.73261    6.8005309    49191.664   0.88301414 
 1220000    371.20377   -30.236108    51667.993   0.84069329 
 1221000    382.68103   -201.40222    53202.758   0.81644142 
 1222000     367.7302   -8.6619225    50086.171   0.86724408 
 1223000    361.41033    6.3442118    51289.216   0.84690191 
 1224000     362.0179    58.121731    51158.741   0.84906185 
 1225000    382.70592    63.863119    50451.262   0.86096826 
 1226000     363.1392    7.6933831    50194.422   0.86537375 
 1227000    391.29593  -0.39269246    49750.672   0.87309243 
 1228000    340.73174   -157.17465    51322.441   0.84635365 
 1229000    406.31214   -4.4289938     49532.44   0.87693914 
 1230000    361.00638    4.4915483    48788.444   0.89031196 
 1231000     373.9945   -53.187873    49265.052   0.88169875 
 1232000    312.10801   -53.186174    47727.415    0.9101045 
 1233000    375.68942    6.3689116    49108.244   0.88451412 
 1234000     366.4736   -57.415592    50323.291   0.86315769 
 1235000    358.93811   -62.493785    51562.884   0.84240701 
 1236000     382.5533    6.2438252    51557.014   0.84250292 
 1237000    328.35374   -17.816977    52978.211   0.81990188 
 1238000     397.9064   -71.998557    51922.306   0.83657562 
 1239000    376.79895    14.450951    46484.151   0.93444613 
 1240000    364.25969    1.2039772    46652.244   0.93107923 
 1241000    379.53475    120.72218    46274.987   0.93866986 
 1242000    360.57837     71.43538    47860.495   0.90757387 
 1243000    381.49047    3.3510755    48863.749   0.88893988 
 1244000    373.13788   -16.448106    49771.443   0.87272806 
 1245000    364.71319    112.60984    50145.553    0.8662171 
[...]
 4926250    349.08264    2.8655408    49713.862    0.8737389 
 4926500    367.03417    3.4352242     49542.07   0.87676868 
 4926750    361.35128    9.4783225    49423.228   0.87887693 
 4927000    382.16776    -11.91854    50232.297   0.86472126 
 4927250    397.54367   -53.380882    51228.581   0.84790432 
 4927500    384.90268    20.517006    51065.929   0.85060501 
 4927750    372.83411   -233.82662    53480.624   0.81219948 
 4928000    374.45382    25.093435    51787.243   0.83875743 
 4928250    380.93264   -13.649924    52350.895   0.82972669 
 4928500    354.19694   -120.49178    53605.033   0.81031449 
 4928750    371.58728   -10.631115    52287.716   0.83072925 
 4929000    380.78063    144.29444     51275.05   0.84713589 
 4929250    369.20978   -17.136496    52218.679   0.83182753 
 4929500     347.6844   -20.869731    52477.648    0.8277226 
 4929750    344.24594    190.90539    51515.905   0.84317523 
 4930000    394.24512    21.636173    53072.929   0.81843863 
 4930250    390.41962    55.691339    52661.449   0.82483365 
 4930500     378.3331    10.261688    52776.976   0.82302811 
 4930750    364.73379   -18.136879    52798.098   0.82269886 
 4931000    364.15785   -134.34781    54191.541   0.80154456 
 4931250     364.7029    24.939902    52037.528   0.83472327 
 4931500    342.40004   -6.7452774    51498.507   0.84346009 
 4931750    368.07949    280.74412    49525.418   0.87706347 
 4932000    361.45605   -22.629763    51073.948   0.85047146 
 4932250    365.18711   -17.399705    50349.995   0.86269989 
 4932500    402.30054     73.85377    49605.464    0.8756482 
 4932750    386.57507    21.478982    49563.576   0.87638823 
 4933000    382.12431    196.27033    48718.118   0.89159715 
 4933250    372.04353     44.17024    49613.103   0.87551337 
 4933500    373.56857    18.819478    50250.673   0.86440503 
 4933750    346.96129   -232.97387     52929.09   0.82066279 
 4934000    354.83632    21.200307    51512.906   0.84322433 
 4934250    372.94697    -53.80365    51875.002   0.83733847 
 4934500    408.09829    95.695871    50553.494   0.85922717 
 4934750    377.95947    7.9592267    50870.838   0.85386709 
 4935000    362.09959   -87.827714    50932.125   0.85283964 
 4935250    361.07148   -46.232254     50250.99   0.86439958 
 4935500    350.09099    -24.24312    50067.637   0.86756511 
 4935750    364.21565   -165.25193    50878.005   0.85374682 
 4936000     365.6512    6.3020342    49492.788   0.87764172 
 4936250      375.973    38.725307    49538.653   0.87682915 
 4936500    405.57254    46.193517    50234.847   0.86467737 
 4936750    377.91419   -14.712451    50124.768   0.86657628 
 4937000    378.60264   -104.04137    50055.086   0.86778265 
 4937250    363.20244    13.795181     49224.33   0.88242816 
 4937500    340.61148    27.390778    48446.289   0.89659984 
 4937750    344.87945    -144.7592    48758.764    0.8908539 
 4938000    360.25147   -19.954927    48190.141    0.9013656 
 4938250    362.94863   -26.590804    47805.811   0.90861202 
 4938500    372.69732    58.884582    47978.991    0.9053324 
 4938750    382.52253     24.88806     48701.65   0.89189862 
 4939000    391.69757    31.517863    50005.434   0.86864429 
 4939250    369.81194    17.496532    50649.243   0.85760285 
 4939500    350.70253   -67.765831    50603.059   0.85838556 
 4939750    358.84558     44.34555    49426.565   0.87881759 
 4940000    405.94834    20.509893    49481.609   0.87783999 
 4940250    398.66941   -0.5945186    49631.212   0.87519392 
 4940500    379.91698   -22.530524     49694.69   0.87407598 
 4940750    360.91147   -45.269703     49392.09   0.87943101 
 4941000    344.20323   -40.496482    49277.576   0.88147467 
 4941250    350.66188    7.8185968    48941.821   0.88752184 
 4941500    396.20726    215.59012    47491.975   0.91461631 
 4941750    392.45097    12.128699    48050.062   0.90399331 
 4942000    362.45007   -6.5601346    48019.033   0.90457747 
 4942250    338.25319   -133.17585    48712.996    0.8916909 
 4942500    335.16283   -18.744836    48403.584   0.89739089 
 4942750    387.90132   -125.48999    49310.372   0.88088842 
 4943000     386.4491   -16.988835    48404.552   0.89737294 
 4943250    392.40283   -11.198283    48126.485   0.90255782 
 4943500    378.96494   -208.67414    49390.486   0.87945955 
 4943750    374.89568   -18.400715    49024.067   0.88603288 
 4944000    347.96189     94.71297    48955.394   0.88727577 
 4944250    329.18446   -43.291689    49468.018   0.87808117 
 4944500    363.74948    -22.33032    48664.486   0.89257975 
 4944750    374.32209   -228.92628    49990.571   0.86890257 
 4945000    381.66233   -28.332355    48080.309   0.90342462 
 4945250    395.20077   -18.809433    47793.873   0.90883898 
 4945500    376.50481    123.92905    47150.219   0.92124567 
 4945750    348.90142    21.389446    47617.382   0.91220755 
 4946000    365.79979    112.87238    47824.145   0.90826369 
 4946250    379.91599    31.020513    48469.375   0.89617278 
 4946500    387.74092     28.71249    48562.417   0.89445578 
 4946750     415.2123    279.71461     46874.03   0.92667379 
 4947000    358.17403    13.732776    47891.228   0.90699146 
 4947250    362.07544   -63.819797    47901.345    0.9067999 
 4947500    353.98702    -83.47407     49128.39    0.8841514 
 4947750    361.68704   -9.4333935     48934.85   0.88764827 
 4948000    416.48348   -108.35951    49148.715   0.88378578 
 4948250     394.0693   -25.703357    48704.778   0.89184135 
 4948500    386.32153   -37.438296      48358.7   0.89822379 
 4948750    370.32558   -189.33643     49654.32   0.87478663 
 4949000    373.21193   -21.105243    48358.302   0.89823118 
 4949250     356.0323   -92.140736    48790.596   0.89027269 
 4949500    361.52387   -57.663315    48837.249   0.88942223 
 4949750    366.19336   -22.444248    48659.716   0.89266726 
 4950000    377.92039   -209.54633    49896.726   0.87053678 
 4950250    371.31684   -9.6422978    49291.043   0.88123384 
 4950500    416.62841    36.010246    49818.459   0.87190443 
 4950750    379.36261   -138.16799     50711.73   0.85654611 
 4951000    365.27534    15.649658    49726.466   0.87351743 
 4951250    352.08983   -17.389626    49592.009   0.87588577 
 4951500    373.47958   -43.950324    48536.441   0.89493449 
 4951750    378.60756    9.5161224    47581.314   0.91289903 
 4952000    369.17366    328.19516    46500.082   0.93412599 
 4952250     364.3289    24.085228    47683.494   0.91094279 
 4952500    338.18067    63.998826    47810.114   0.90853025 
 4952750    341.98559    8.2037616    47573.993    0.9130395 
 4953000    378.05863   -19.381316    47799.136   0.90873891 
 4953250     377.7807   -230.26568    49737.314   0.87332692 
 4953500    370.06116   -25.049137     48491.25   0.89576851 
 4953750    368.66931   -36.409034    49587.934   0.87595774 
 4954000    374.02019   -112.66709    50235.815   0.86466071 
 4954250    394.27747    21.135712    49575.819   0.87617181 
 4954500    388.53539   -32.571681     50078.15   0.86738298 
 4954750    378.36435   -63.578221    50363.107   0.86247528 
 4955000    397.98901    17.048317    50038.618   0.86806824 
 4955250     379.3112    127.13368    48862.715   0.88895869 
 4955500    366.61064   -27.823379    49977.412   0.86913134 
 4955750    362.71935   -27.595771    49236.471   0.88221058 
 4956000    365.35684    48.973219    48773.915   0.89057717 
 4956250    370.40405    13.835777    48961.277   0.88716916 
 4956500    410.96284    48.156969    49626.111   0.87528388 
 4956750    367.30643   -86.021044    50217.024   0.86498425 
 4957000    359.84511   -9.6754413    49790.087   0.87240126 
 4957250     352.0848    213.39224    49164.705   0.88349834 
 4957500    373.04813   -25.254093    51488.146   0.84362981 
 4957750    385.22665     -21.6293    52267.171   0.83105578 
 4958000    407.67919    64.078642    51713.109   0.83995984 
 4958250     380.0934    24.674078    52189.305   0.83229572 
 4958500    396.40454    14.109667    52093.509   0.83382625 
 4958750    373.97428   -133.08762     53442.99   0.81277142 
 4959000     368.6637   -13.760428    52294.862   0.83061573 
 4959250    328.32307    106.80199     50753.78   0.85583645 
 4959500    340.01562   -65.606309    51823.416   0.83817198 
 4959750    364.83624    19.988057    50876.402   0.85377373 
 4960000    358.45161   -123.65506     52055.45   0.83443588 
 4960250    377.27499    31.768429     50612.79   0.85822053 
 4960500      365.268   -19.691944    50118.673   0.86668167 
 4960750    386.07888   -249.86053     52412.98   0.82874386 
 4961000    404.71467    24.428556    51027.218   0.85125031 
 4961250     383.7441   -37.344142    52150.522   0.83291468 
 4961500    386.87484    12.353311    51107.003    0.8499214 
 4961750    347.53857    16.110388    51199.013     0.848394 
 4962000     348.9526   -94.707495    51543.081   0.84273066 
 4962250    365.74346    69.088638    50483.102   0.86042523 
 4962500    348.40018   -21.923605    50815.111    0.8548035 
 4962750    379.03602    200.51087    49022.394   0.88606312 
 4963000     391.6124    16.374786    49409.863   0.87911465 
 4963250    382.81864   -0.7988559    48908.665    0.8881235 
 4963500    387.82392    73.857123     48098.61   0.90308088 
 4963750    372.89284    10.042737    48673.529   0.89241392 
 4964000    357.53121    -18.90339    48641.063   0.89300957 
 4964250    342.52123   -17.904015    48592.958   0.89389363 
 4964500     348.6442    1.7944855     48561.81   0.89446698 
 4964750    385.72628   -70.660685    49908.936    0.8703238 
 4965000    408.59642   -41.151836    50018.942   0.86840971 
 4965250     373.7855    11.609215    48913.008   0.88804465 
 4965500    357.77846    -68.16735    48196.409   0.90124837 
 4965750    352.16395   -19.275962    47410.982   0.91617877 
 4966000    367.57682    42.365431    46869.912   0.92675521 
 4966250    348.35092   -126.93356    47021.739   0.92376284 
 4966500     375.3396    24.411205     46220.86   0.93976908 
 4966750    396.58907   -123.07094    47653.578   0.91151467 
 4967000    384.55466    56.374753    46703.587   0.93005565 
 4967250    378.00643   -5.9686072    47341.324   0.91752683 
 4967500    360.14839   -243.04341    48885.469   0.88854491 
 4967750    360.08921    20.049169    46960.831   0.92496096 
 4968000    368.80551    17.927358    47372.064   0.91693143 
 4968250    353.75474    -59.17663    47905.571    0.9067199 
 4968500     340.9766   -24.969894     46829.53   0.92755437 
 4968750    387.43667    73.027783    46520.253   0.93372096 
 4969000    377.77296   -60.891403    47761.168   0.90946132 
 4969250    389.24661   -15.470646    48546.507   0.89474894 
 4969500    390.45866   -41.591818    48106.132   0.90293967 
 4969750    355.11066   -41.416751    47901.447   0.90679798 
 4970000    358.88388   -26.675708    47469.981   0.91504008 
 4970250    393.42662   -228.04045    50104.608   0.86692496 
 4970500     379.2465    -24.92213    48781.726   0.89043457 
 4970750    359.87432   -7.8739666    47986.908   0.90518304 
 4971000    339.80967   -58.717901    48566.737   0.89437623 
 4971250    352.79336   -11.319489    47749.585   0.90968194 
 4971500     385.9154   -74.397447    47594.635   0.91264351 
 4971750    396.96176    93.460711     46703.29   0.93006157 
 4972000      391.946   -13.785779    48027.267   0.90442238 
 4972250    381.50647   -189.34191    48851.802   0.88915727 
 4972500    389.39061    13.721677    47475.931   0.91492539 
 4972750    370.10031    30.776033    47858.167   0.90761803 
 4973000    377.62891      111.068    47760.575   0.90947261 
 4973250    364.38506   -6.6603651    48269.486   0.89988394 
 4973500    357.39675   -41.978465    48866.153   0.88889614 
 4973750    350.55884   -168.06581    49527.701   0.87702304 
 4974000    362.26554   -2.5048359     48000.48    0.9049271 
 4974250    381.20885     105.8536    47862.743   0.90753126 
 4974500     406.2101    66.077563    48313.276   0.89906831 
 4974750    384.82703    15.585412    48645.194   0.89293373 
 4975000    374.45236   -70.274463     48798.11    0.8901356 
 4975250    365.92831   -16.813434      48960.9   0.88717599 
 4975500    347.15583    7.6359386    48657.443   0.89270896 
 4975750    320.32396   -30.053239    48521.947   0.89520181 
 4976000    364.91058    -22.23592    47852.887   0.90771816 
 4976250    388.54399   -47.645914    47569.817   0.91311965 
 4976500    385.62091    55.137121    46158.407   0.94104059 
 4976750    381.67681    15.973362    46537.131   0.93338231 
 4977000    398.87954   -130.75116    47402.717   0.91633851 
 4977250    377.56482    41.964181    46230.372   0.93957571 
 4977500    355.68937   -2.3838047    46856.716   0.92701621 
 4977750    352.46757   -178.27604     47660.03   0.91139126 
 4978000    352.49647    27.460596    47038.556   0.92343258 
 4978250    345.98119    30.469668    47269.779   0.91891556 
 4978500    371.84512   -128.32783    47728.489   0.91008401 
 4978750    382.71519    12.095167    46917.984   0.92580565 
 4979000    374.52877   -35.101069    47786.185    0.9089852 
 4979250    373.05305   -26.909127    48995.924   0.88654181 
 4979500    361.45728    9.6277559    48661.165   0.89264067 
 4979750    361.57718     307.9917    47323.658   0.91786935 
 4980000    379.29149    9.1983102     49364.21   0.87992769 
 4980250     398.7067   -57.222862    50284.772   0.86381887 
 4980500    356.25825    87.195022    48400.263   0.89745247 
 4980750    364.86859    20.437406    48321.089   0.89892294 
 4981000    364.72999    162.07856    47528.735   0.91390891 
 4981250    374.28625    28.731066    48356.601   0.89826278 
 4981500    387.45537    25.809588    48397.531   0.89750311 
 4981750    382.97804    125.89203    47302.232    0.9182851 
 4982000    384.16556   -19.394393    47954.967   0.90578594 
 4982250    365.04969   -90.444586    48878.992   0.88866267 
 4982500    369.90507   -70.041641    49305.231   0.88098025 
 4982750    364.17885   -13.142267    49170.188   0.88339981 
 4983000    372.21662     297.5234    48109.876   0.90286941 
 4983250    359.53777   -24.756419    50056.778   0.86775331 
 4983500    377.64786    16.590674    49039.624    0.8857518 
 4983750     405.6682    162.34641    48144.821   0.90221408 
 4984000    372.94882    17.219628    48735.576   0.89127776 
 4984250    361.54127    29.091565     49371.68   0.87979456 
 4984500    362.67883   -42.524244     49945.82   0.86968108 
 4984750    371.71976    11.933614     49873.51     0.870942 
 4985000    418.50497   -53.852386    50797.193   0.85510503 
 4985250    382.11213    12.738119    50523.477   0.85973765 
 4985500    354.62202   -43.905207    50508.603   0.85999082 
 4985750    348.97096   -17.365999    50470.835   0.86063436 
 4986000    389.47259   -19.576894    52013.843   0.83510337 
 4986250    384.67111   -233.06801    54006.547   0.80429017 
 4986500    379.01114    7.2251131    50720.914   0.85639102 
 4986750    359.33288   -38.632554    50393.527   0.86195465 
 4987000    338.87618    104.32423    49868.675   0.87102644 
 4987250    339.18671   -7.5462259    50640.565   0.85774981 
 4987500    397.48001    123.31952    50477.369   0.86052295 
 4987750    395.67449   -26.068564    52024.086   0.83493894 
 4988000    401.34574   -26.586123    51378.616   0.84542828 
 4988250    379.94353    176.41221    49936.948   0.86983559 
 4988500     359.4709   -19.350614    51242.708   0.84767057 
 4988750    357.61662   -20.355134     51998.63   0.83534768 
 4989000    379.47141     41.76506    51641.736   0.84112074 
 4989250    379.90515    21.690129    51698.391   0.84019897 
 4989500    378.02176   0.26781112    51570.483   0.84228288 
 4989750    371.95202   -21.975421    51370.085   0.84556867 
 4990000    374.18049    5.0734679    51745.908   0.83942743 
 4990250    371.18482    93.028102    51013.184   0.85148448 
 4990500    358.63284    10.522999    51407.758   0.84494902 
 4990750     345.9153   -179.52627    53429.532   0.81297615 
 4991000    358.80932   -28.320218    52561.928    0.8263954 
 4991250    371.32181   -32.289242    53263.647   0.81550809 
 4991500     354.9935   -161.48038    54163.281   0.80196277 
 4991750    356.39713   -5.3753666    51526.483   0.84300214 
 4992000    357.15268    99.528121    50644.603   0.85768143 
 4992250    378.70117   -33.133447    50142.189    0.8662752 
 4992500    384.66606    -15.56717    49807.196   0.87210159 
 4992750      386.505    137.60221    48894.437   0.88838194 
 4993000    391.07313     20.99955    50105.947   0.86690179 
 4993250    375.67386   -57.530665    50788.269   0.85525527 
 4993500    363.45664    48.793002    49769.944   0.87275434 
 4993750    367.58271    18.338267     49946.57   0.86966803 
 4994000    338.65956   -174.97464    51183.908   0.84864437 
 4994250    368.16235    -20.94543    49647.162   0.87491274 
 4994500    358.23026    29.047833    49751.196   0.87308324 
 4994750    365.68971   -64.473553    50461.434    0.8607947 
 4995000    385.35964   -16.803545    49832.139   0.87166507 
 4995250    385.90052      153.744    49236.555   0.88220907 
 4995500     389.4983   -38.963003    50594.501   0.85853076 
 4995750    390.71593    26.616925     50537.87   0.85949279 
 4996000    379.06866   -47.860913     51106.33   0.84993258 
 4996250    354.25077    -13.07624    50828.393   0.85458013 
 4996500    365.46081    82.782297    50499.031   0.86015384 
 4996750    372.31368   -6.9616418    51069.614   0.85054363 
 4997000    380.26601   -12.823376    50908.523   0.85323502 
 4997250    406.21024    257.62009    49071.358   0.88517898 
 4997500    413.45928   -14.766029    50635.299   0.85783902 
 4997750    370.98409    44.116466    50073.528   0.86746304 
 4998000    365.40773    43.543424    49454.224   0.87832608 
 4998250    358.15978   -18.452489    49361.595   0.87997431 
 4998500    354.71514   -207.32989    50776.257   0.85545759 
 4998750    375.17357   -8.5967742    49016.477   0.88617008 
 4999000    390.26581   -21.626374    49081.117   0.88500298 
 4999250    392.52001     -30.3916    49062.726   0.88533473 
 4999500    363.90462   -4.0212693    48458.758   0.89636913 
 4999750    349.43648   -149.18263    49486.996   0.87774442 
 5000000    345.25278    -30.93527    48358.742   0.89822301 
Loop time of 241.094 on 1 procs for 1000000 steps with 256 atoms

Performance: 179.183 ns/day, 0.134 hours/ns, 4147.753 timesteps/s
97.9% CPU use with 1 MPI tasks x no OpenMP threads

MPI task timing breakdown:
Section |  min time  |  avg time  |  max time  |%varavg| %total
---------------------------------------------------------------
Pair    | 101.12     | 101.12     | 101.12     |   0.0 | 41.94
Neigh   | 21.381     | 21.381     | 21.381     |   0.0 |  8.87
Comm    | 5.2394     | 5.2394     | 5.2394     |   0.0 |  2.17
Output  | 104.46     | 104.46     | 104.46     |   0.0 | 43.33
Modify  | 7.5871     | 7.5871     | 7.5871     |   0.0 |  3.15
Other   |            | 1.306      |            |       |  0.54

Nlocal:    256 ave 256 max 256 min
Histogram: 1 0 0 0 0 0 0 0 0 0
Nghost:    1349 ave 1349 max 1349 min
Histogram: 1 0 0 0 0 0 0 0 0 0
Neighs:    10102 ave 10102 max 10102 min
Histogram: 1 0 0 0 0 0 0 0 0 0

Total # of neighbors = 10102
Ave neighs/atom = 39.4609
Neighbor list builds = 60208
Dangerous builds = 31964

####################################
# 6) Advanced inputs
####################################

#dump		2 all custom 1000 positions.lammpstrj id x y z vx vy vz
#dump_modify	2 sort id

#compute		RDF all rdf 150 cutoff 3.5
#fix		RDF_OUTPUT all ave/time 25 100 5000 c_RDF[*] file rdf_lj.out mode vector

#compute		MSD all msd
#fix		MSD_OUTPUT all ave/correlate 1 5000 5000 c_MSD[*] file msd_lj.out ave running

#compute		VACF all vacf
#fix		VACF_OUTPUT all ave/correlate 1 2500 5000 c_VACF[*] file vacf_lj.out ave running

#run		5000

#write_restart	restart2.lj.equil
Total wall time: 0:12:52
