LAMMPS (3 Mar 2020)
####################################
# Example LAMMPS input script      #
# for a simple Lennard Jones fluid #
####################################

####################################
# 1) Set up simulation box
#   - We set a 3D periodic box
#   - Our box has 10x10x10 atom
#     positions, evenly distributed
#   - The atom starting sites are
#     separated such that the box density
#     is 0.6
####################################

units		real
atom_style	atomic
dimension	3
boundary	p p p

lattice	sc 8
Lattice spacing in x,y,z = 8 8 8
region		box block 0 6 0 6 0 6
create_box	1 box
Created orthogonal box = (0 0 0) to (48 48 48)
  1 by 1 by 1 MPI processor grid
create_atoms	1 box
Created 216 atoms
  create_atoms CPU = 0.000731629 secs

####################################
# 2) Define interparticle interactions
#   - Here, we use truncated & shifted LJ
#   - All atoms of type 1 (in this case, all atoms)
#     have a mass of 1.0
####################################

pair_style	lj/cut 15
pair_modify	shift yes
pair_coeff	1 1 1.0 7.5
mass		1 340.419

####################################
# 3) Neighbour lists
#   - Each atom will only consider neighbours
#     within a distance of 2.8 of each other
#   - The neighbour lists are recalculated
#     every timestep
####################################

neighbor        0.3 bin
neigh_modify    delay 10 every 1

####################################
# 4) Define simulation parameters
#   - We fix the temperature and
#     linear and angular momenta
#     of the system
#   - We run with fixed number (n),
#     volume (v), temperature (t)
####################################

#fix		LinMom all momentum 50 linear 1 1 1 angular
#fix		1 all nvt temp 1.00 1.00 5.0
fix 		1 all npt temp 373.0 373.0 25.0 iso 1.0 1.0  10.0

####################################
# 5) Final setup
#   - Define starting particle velocity
#   - Define timestep
#   - Define output system properties (temp, energy, etc.)
#   - Define simulation length
####################################

velocity	all create 373.0 199085 mom no

timestep	0.5

thermo_style	custom step temp press vol density #lx ly lz


run_style	verlet

thermo		1000
run		4000000
Neighbor list info ...
  update every 1 steps, delay 10 steps, check yes
  max neighbors/atom: 2000, page size: 100000
  master list distance cutoff = 15.3
  ghost atom cutoff = 15.3
  binsize = 7.65, bins = 7 7 7
  1 neighbor lists, perpetual/occasional/extra = 1 0 0
  (1) pair lj/cut, perpetual
      attributes: half, newton on
      pair build: half/bin/atomonly/newton
      stencil: half/bin/3d/newton
      bin: standard
Per MPI rank memory allocation (min/avg/max) = 3.068 | 3.068 | 3.068 Mbytes
Step Temp Press Volume Density 
       0          373    324.45186       110592    1.1040605 
    1000    313.35662     7.650813    130338.11   0.93679637 
    2000    417.07854    47.636916    129650.04   0.94176806 
    3000    361.10934   -25.992355    129406.71   0.94353889 
    4000    391.99146    41.659371    126944.49   0.96183981 
    5000    340.88403    -62.49502    130668.69   0.93442635 
    6000    399.44401     -11.8844    129329.07   0.94410531 
    7000    366.47418   -32.128355    132205.52   0.92356404 
    8000    392.44739    55.002475    131049.56   0.93171057 
    9000    369.90587   -8.4838515    132267.04   0.92313445 
   10000    358.94172   -40.559098     131787.9   0.92649072 
   11000    369.12974     46.16618    128119.07   0.95302176 
   12000    424.62206   -8.5218792    133276.16   0.91614479 
   13000    367.20019   -33.787732    134709.59   0.90639621 
   14000    363.09554    16.207746    133591.18   0.91398449 
   15000    381.81768   -14.185987    134613.09     0.907046 
   16000     362.3209    13.990895    134071.54    0.9107098 
   17000    347.51098   -19.536413    131770.43   0.92661355 
   18000    388.28776    33.301074    132073.85   0.92448475 
   19000     348.4124    3.7046312     134313.2   0.90907124 
   20000    418.90175    4.6649228    138123.81   0.88399141 
   21000    337.21947    3.7444897    137108.53   0.89053734 
   22000    414.80173    4.5195041    136175.27   0.89664054 
   23000    373.53078    1.7817195    136933.23   0.89167739 
   24000    368.35041   -31.073433    137980.98   0.88490651 
   25000    396.11678   -22.230553    137368.58   0.88885144 
   26000    343.01808   -25.742095    135414.85   0.90167558 
   27000    375.51519    31.132722    133450.92   0.91494507 
   28000    387.09385    18.371086    133580.43   0.91405805 
   29000    393.35493    20.643634    137010.07   0.89117733 
   30000    372.92925   -9.4712852    135439.05   0.90151449 
   31000    359.36802   -15.406246    137928.65   0.88524223 
   32000    397.79495    27.085978    137490.94   0.88806045 
   33000    339.95878    57.643831    135588.55   0.90052046 
   34000    386.14341    23.064091    137613.96   0.88726654 
   35000    342.36632   -27.984915    138609.38   0.88089469 
   36000    347.19242    31.413684    136533.94   0.89428509 
   37000    378.71283    50.768516    135193.34   0.90315294 
   38000    389.07084   -19.843509    141742.26   0.86142458 
   39000    359.68947   -7.0395103    138007.27   0.88473791 
   40000    424.64103   -15.018274    140624.68   0.86827052 
   41000    339.53682   -10.529328    139584.91   0.87473826 
   42000    365.33502   -48.905317    141008.49   0.86590719 
   43000    427.14472    50.523335     141593.9   0.86232712 
   44000    371.40412   -20.451401    145305.51   0.84030028 
   45000    381.87839    25.331194    144002.77   0.84790219 
   46000    361.11792   -51.824455    146343.18   0.83434203 
   47000    380.79908    23.245913    139380.85   0.87601894 
   48000    327.91443   -39.243611    141927.45   0.86030055 
   49000    366.63524     19.36178    139426.74   0.87573058 
   50000    388.48619   -5.8918005    140895.66   0.86660061 
   51000    364.32923   -34.079291    144408.75   0.84551846 
   52000    379.46858    19.929907    137178.79   0.89008118 
   53000    345.79934   -17.393522    139423.61   0.87575029 
   54000    376.34475   -23.984633    138914.94   0.87895704 
   55000    378.39748   -47.475231     139641.7   0.87438255 
   56000    344.46812    41.201291    134173.99   0.91001438 
   57000    401.68926   -32.088512    139329.14   0.87634403 
   58000    351.53862    3.3030846    137856.36   0.88570645 
   59000    391.02869    -39.21756    140871.42   0.86674971 
   60000    352.44962    20.343367    139612.36    0.8745663 
   61000    396.04728     8.021257     137717.1   0.88660203 
   62000    363.39868   -56.109915    141400.31   0.86350778 
   63000    363.08075    26.951668    139394.13   0.87593547 
   64000    368.76757   -6.6595914    140720.51   0.86767921 
   65000    402.69893    9.4372595    140995.44   0.86598733 
   66000     355.3573   -34.794721    142540.07   0.85660309 
   67000    403.60669    10.766937    141915.13   0.86037525 
   68000    330.05149   -13.765347    139502.17    0.8752571 
   69000    373.53601   -8.3923493    139433.71    0.8756868 
   70000    372.59091     58.79813    136314.39   0.89572539 
   71000    368.94531   -25.868976    140999.03    0.8659653 
   72000    376.00455    13.393425    137108.29    0.8905389 
   73000    379.21806   -6.2274938    138481.44   0.88170853 
   74000    350.79862   -36.947793    143076.69   0.85339032 
   75000    415.62877    68.629227    141248.26   0.86443728 
   76000    356.54873    53.193065    142375.44    0.8575936 
   77000    385.57182    -26.72194    150390.56   0.81188784 
   78000    345.03601     -24.6063    147297.66   0.82893552 
   79000    405.74559   0.30698879    147893.74   0.82559453 
   80000     344.2158    9.3263513    148031.75   0.82482483 
   81000    376.84249    46.875321    145516.65   0.83908106 
   82000    363.56227   -13.939107    145665.64   0.83822285 
   83000    411.52786    14.925166    148197.79   0.82390072 
   84000    362.57377    20.368713    146722.48    0.8321851 
   85000     367.0981    31.271421    145319.97   0.84021671 
   86000    427.77324    1.7637643    147160.35   0.82970899 
   87000    332.92001   -6.3900546     148858.6   0.82024327 
   88000    382.62152    12.406909    147121.48   0.82992818 
   89000    347.17762   -13.923722    143929.78   0.84833219 
   90000    417.49878   -46.417302    147717.06   0.82658201 
   91000     367.4981    3.0626606       143506   0.85083736 
   92000    388.74582     16.51701    142617.35   0.85613891 
   93000    378.53212    13.323406    141326.37   0.86395953 
   94000    368.37796    52.355519    143924.61   0.84836267 
   95000    372.45081    26.537345    147121.65   0.82992723 
   96000     354.3794   -16.605833    151153.12   0.80779187 
   97000    390.02407   -10.610816    150185.96   0.81299385 
   98000    342.33523   -43.002284    148980.06   0.81957454 
   99000    401.16966   -4.3945696    146380.49   0.83412938 
  100000    375.19792    53.154938    143230.51   0.85247383 
  101000    357.46837    44.689241    144012.88   0.84784266 
  102000    379.31633   -51.835123    147698.64   0.82668507 
  103000    369.80076    35.682405    140010.22    0.8720811 
  104000    375.52629   -9.5514318    142944.34   0.85418048 
  105000    379.80841    73.070226    133884.98   0.91197877 
  106000    371.84094    41.875709     135003.4   0.90442365 
  107000    395.12841    -21.70612    137610.39   0.88728958 
  108000    373.00739   -67.460991    138884.35    0.8791506 
  109000    366.17934    55.277222     131300.3   0.92993134 
  110000    390.45634    31.554272    129122.61   0.94561491 
  111000    364.26966    10.844673     129881.5    0.9400897 
  112000    369.97658   -1.3192381    133058.33   0.91764464 
  113000    362.81229   -15.650173    134272.35   0.90934779 
  114000    355.64962   -30.492469    132998.47   0.91805765 
  115000    373.44331    21.034289    130839.72   0.93320487 
  116000    400.91652    2.8060299    131594.85   0.92784989 
  117000    351.19885   -42.537884    132843.52   0.91912851 
  118000    389.88392    52.946805    131387.74   0.92931247 
  119000    348.39561   -24.826917    136395.91   0.89519005 
  120000    386.42682    27.593473    132805.16     0.919394 
  121000    370.78167    21.508097    131940.68   0.92541789 
  122000     377.4548    101.46683    130475.66   0.93580875 
  123000    367.08061    10.747137    137590.74   0.88741628 
  124000    407.94908    68.866665    135219.47   0.90297845 
  125000    346.99992    -34.94966    140829.56   0.86700738 
  126000    380.36815   -2.5546945    136346.57   0.89551399 
  127000    350.90346   -35.831584     138775.9   0.87983764 
  128000    396.03081   -27.220974    139303.55   0.87650506 
  129000    346.85772   -28.067894    138265.06   0.88308837 
  130000    350.91036   -17.368045    138481.67   0.88170703 
  131000    380.72051    13.459619    137161.17   0.89019555 
  132000    392.77016    30.232768    135298.84   0.90244873 
  133000    352.21177   -26.888586    136319.97   0.89568876 
  134000    365.68241     -17.9273     138307.2   0.88281927 
  135000    378.22734    16.312107    134471.89   0.90799845 
  136000    372.65601    49.593025    133699.88   0.91324138 
  137000    383.07097   -27.545678    141651.54   0.86197624 
  138000    360.36322   -43.648057    145173.74   0.84106299 
  139000    378.03098   -64.695433    144165.47   0.84694526 
  140000      348.191   -37.437532    142569.39   0.85642693 
  141000    407.04489   -19.097567    140106.71   0.87148047 
  142000    345.11443    10.063522    137868.06   0.88563125 
  143000    398.07423   -29.727509    139767.95   0.87359275 
  144000      373.167    49.370203    134743.49   0.90616818 
  145000    394.28904    6.6653565    136494.82   0.89454137 
  146000    376.02782    10.159143    138213.76   0.88341612 
  147000    333.33174    23.552827    136876.93   0.89204412 
  148000    384.25911   -3.7793436    138226.38   0.88333547 
  149000    358.78541  -0.67383833    134574.63   0.90730521 
  150000    387.48199    14.378965     132344.1   0.92259696 
  151000    359.79959   -48.276445    136723.62    0.8930444 
  152000    358.48251  -0.11118618    132036.74   0.92474459 
  153000    349.17592     22.55562    131898.14   0.92571631 
  154000     380.4548    32.829442    132553.42   0.92114008 
  155000    370.31151   -4.9989844    135348.26    0.9021192 
  156000    324.48154   -10.420837     134448.2   0.90815842 
  157000    377.46066     2.730025    134915.54   0.90501262 
  158000    333.19154   -13.532816    135693.81   0.89982192 
  159000    413.28148    27.302025    133097.37   0.91737549 
  160000    357.26401    28.505548    129993.98   0.93927633 
  161000    368.00044   -18.033165    132770.89    0.9196313 
  162000    389.39323   -7.9074979    133204.45   0.91663804 
  163000    390.18664   -15.125576    136389.98   0.89522901 
  164000    343.35073    -36.23015     136733.1   0.89298246 
  165000    409.13368   -21.606046    133731.02   0.91302874 
  166000    369.17422   -38.684424     132760.8   0.91970115 
  167000    386.12041    13.685219    129929.83   0.93974002 
  168000    372.73453    -3.209973    131547.37   0.92818477 
  169000    361.54292    10.930275    131033.81   0.93182261 
  170000    415.19792    33.309146    132432.19   0.92198328 
  171000    366.44063    24.272561    130400.51   0.93634806 
  172000    381.55979    -22.41264    129495.27   0.94289361 
  173000    322.49444    16.714482     127897.7   0.95467129 
  174000    355.79779   -19.187901    128867.26   0.94748866 
  175000    380.47415   -62.156214    130999.28   0.93206817 
  176000    368.73424   -63.086273    130777.49   0.93364895 
  177000    323.34399   -90.583207    134410.21   0.90841511 
  178000    388.90595    38.224735    130653.16   0.93453743 
  179000    356.75123    16.611409    129277.09   0.94448492 
  180000    388.62906   -27.735773    133599.14   0.91392998 
  181000    367.25081     46.90419    131428.58   0.92902368 
  182000    390.94364   -5.0929335    130542.15   0.93533212 
  183000    347.81152    10.322404    129620.52   0.94198249 
  184000    409.58227    6.2587076    127442.74   0.95807942 
  185000    355.14434   -29.577439     130322.2   0.93691068 
  186000    366.40671   -27.600082    131598.65   0.92782306 
  187000    391.37862    21.177389    128769.96   0.94820453 
  188000    359.56703    33.704635    128473.13   0.95039534 
  189000    385.33884    40.197948    132371.59   0.92240539 
  190000    331.10004   -33.914357    134276.15   0.90932202 
  191000    398.25973    56.467001    132397.17   0.92222717 
  192000    363.91269   -37.694171    135695.72   0.89980924 
  193000    352.52537     48.18311     131722.8   0.92694862 
  194000    380.59357   -12.021919    131619.12   0.92767876 
  195000    365.96549   -10.856089    133485.29   0.91470953 
  196000    393.33904   -17.117852    132686.38   0.92021698 
  197000    341.23513    14.064747    134627.68   0.90694768 
  198000     397.5334    16.465469    136194.25   0.89651558 
  199000    365.38226   -5.4161807    138818.09   0.87957024 
  200000    368.79734     32.58466    140774.64   0.86734557 
  201000     406.8823    103.08947    138304.84   0.88283436 
  202000    363.24394    12.677255    139525.48   0.87511087 
  203000    364.11181    41.606074    136352.89   0.89547248 
  204000    380.70861    47.208797    134554.86   0.90743852 
  205000    369.97146   -43.265521    135945.91   0.89815329 
  206000     373.9943    17.948919    134443.26    0.9081918 
  207000    371.22467    47.039207    133426.78   0.91511059 
  208000    386.81771  -0.52660847    136002.34   0.89778062 
  209000    346.24833   -14.782097    135985.61   0.89789107 
  210000    375.34181    13.388746    137422.62   0.88850191 
  211000    359.10481   -8.7021037    139408.85     0.875843 
  212000    355.02423     51.47113    136022.97   0.89764445 
  213000    401.41432   -22.523715    139840.58   0.87313897 
  214000    345.77612    13.488973    140069.52    0.8717119 
  215000    383.48215   -7.7813527    139170.73   0.87734158 
  216000    357.18817    48.988026    136239.16   0.89622005 
  217000    367.99399    -30.96358    138700.62   0.88031518 
  218000    384.21117   -27.837297    137631.62   0.88715272 
  219000    351.57441    32.633211     133104.8    0.9173243 
  220000    403.33949   -6.4516969    135933.69   0.89823398 
  221000    351.35645   -47.074361    135792.32   0.89916912 
  222000    391.65778   -41.332537    134730.64    0.9062546 
  223000    344.53442   -75.976996    137487.61   0.88808193 
  224000    411.33817    47.773016    128748.63   0.94836166 
  225000    382.96196    43.895079     128099.2   0.95316959 
  226000      355.632   -19.978655    131906.78   0.92565571 
  227000    358.63731    81.219148    127480.64   0.95779458 
  228000    399.32434    98.446485    127295.17   0.95919011 
  229000    385.12465      69.3742    128375.25      0.95112 
  230000    359.60508   -36.412427    132926.02   0.91855804 
  231000    373.82929    -13.50916    132763.62   0.91968163 
  232000    361.31106    7.4685224     130691.8   0.93426111 
  233000    379.17036    -26.69047    133804.72    0.9125258 
  234000    359.88238    16.565194    130228.25   0.93758664 
  235000    392.28264   -40.983167    133742.65   0.91294932 
  236000     339.0388   -39.571397    133073.46    0.9175403 
  237000    341.38374    -11.14972    129857.59   0.94026282 
  238000    370.30904   -60.852858    132879.35   0.91888064 
  239000    391.69493    53.460342    128364.64    0.9511986 
  240000    330.53205   -18.101272    136075.64   0.89729697 
  241000    376.19417    19.002592    133866.31   0.91210601 
  242000     397.0737   -29.714506    134636.06   0.90689127 
  243000    342.45927   -13.810412    133187.71   0.91675323 
  244000    401.70898    42.505217    131496.11    0.9285466 
  245000    398.05619   -24.703482    133298.59   0.91599067 
  246000    357.71559    16.620233     130600.3   0.93491563 
  247000    374.66058   -11.857987    131865.23   0.92594737 
  248000    357.21568   -46.045442    134771.81   0.90597776 
  249000    380.34676    45.847148    132560.05     0.921094 
  250000    385.27557    80.893391    129891.47   0.94001757 
  251000    386.86221    60.413092    128931.82   0.94701416 
  252000    367.77956   -20.595928    133859.31   0.91215369 
  253000    356.49002   -16.232512    132561.54   0.92108362 
  254000    403.92341     25.18515    132737.89   0.91985992 
  255000    370.97604    27.175035    133355.19   0.91560188 
  256000    365.88266    49.936128    131293.18   0.92998177 
  257000    379.08361   -23.527181    132191.39   0.92366278 
  258000    376.22635   -13.721384    132374.99   0.92238167 
  259000    364.86575   -58.717706    137445.22   0.88835586 
  260000     378.8647    -7.796374    132959.93   0.91832375 
  261000    402.71005    32.319545    129682.87   0.94152959 
  262000    384.13921    21.328696    129354.54   0.94391946 
  263000    370.48493   -10.042135    131986.13    0.9250992 
  264000    370.89253    -36.27937    134325.68   0.90898678 
  265000    405.77614    24.177861    129707.79   0.94134877 
  266000    368.50692   -14.901483    130974.07   0.93224759 
  267000     359.3349    23.660341    132797.62   0.91944621 
  268000    397.99063   -27.554944    136216.06   0.89637202 
  269000    375.83364    8.0152925    134111.45   0.91043875 
  270000    370.41381   -22.755438     135005.2   0.90441154 
  271000    372.23696    9.0953771    132629.35   0.92061269 
  272000    408.09511   -33.452503    135064.08   0.90401732 
  273000    378.03112   -36.028804    134925.37   0.90494663 
  274000    373.95674   -6.4994412    132552.79   0.92114441 
  275000    365.60256     3.406058    132282.53   0.92302638 
  276000     399.5211   -44.708526    135233.27   0.90288629 
  277000    338.18596   -14.709516    133897.06   0.91189653 
  278000    395.29268    5.0839194    133756.01   0.91285815 
  279000    339.17444   -59.912631    133432.35   0.91507246 
  280000    370.82964    20.159959    130728.71   0.93399733 
  281000    393.54881   -5.5534909    133154.34   0.91698295 
  282000    330.80383   -11.412969    131704.18   0.92707962 
  283000    392.72746   -9.2986677    130108.01   0.93845312 
  284000    383.65523    -11.87822    131614.33   0.92771256 
  285000    342.68476   -6.6471829    131623.04   0.92765115 
  286000    414.86925    -5.365793    132149.69   0.92395424 
  287000    345.75714    52.099255    132949.55   0.91839546 
  288000    393.45446   -23.185987    136059.23   0.89740523 
  289000    366.87352    45.885251    133426.86    0.9151101 
  290000    382.49355   -30.159125    137972.85   0.88495861 
  291000    378.32189    52.485213    136676.07   0.89335508 
  292000    378.32179   -9.8717461    139405.63    0.8758632 
  293000    357.03068    41.766045    137000.06   0.89124243 
  294000    385.80545    29.741474    138062.32   0.88438515 
  295000    339.35027    11.683477    137466.12    0.8882208 
  296000    395.53412   0.44888894    134689.82   0.90652926 
  297000    382.14621    8.5283262    135070.57   0.90397388 
  298000    427.07062    75.609887    132942.68   0.91844294 
  299000    362.36238    23.760007    135593.44   0.90048796 
  300000    352.96807    15.488121    136198.74   0.89648601 
  301000     361.8151   -58.762016     141151.7   0.86502867 
  302000    379.23786    70.573385    134077.81   0.91066721 
  303000    382.57066    37.781086    132908.94   0.91867606 
  304000    366.31263   -23.195319    136895.77   0.89192139 
  305000    386.19711   -37.905499    139511.14   0.87520079 
  306000    379.35213   -1.6306042    136581.52    0.8939735 
  307000    366.22422   -0.1003651    135370.17   0.90197318 
  308000    379.94321    6.4412679    134317.94    0.9090391 
  309000    355.55738     31.34392    134265.96   0.90939104 
  310000     401.5883    7.0165538    135565.31   0.90067482 
  311000    343.98422   -81.564266    140189.13   0.87096815 
  312000    366.95006   -39.783108    136684.53   0.89329978 
  313000    358.35483   -63.906621    137809.24   0.88600929 
  314000    363.30928   -39.464127    134517.73   0.90768898 
  315000    388.14401    21.014743       131986   0.92510009 
  316000    366.29247    47.715027    133138.23   0.91709396 
  317000    410.32339   -6.6807599       137372   0.88882931 
  318000    347.50115   -1.9667111    138116.13   0.88404055 
  319000    398.28953     33.75414    134865.58   0.90534784 
  320000    367.76747    13.161811    135317.54   0.90232403 
  321000    393.62292   -38.970123    137710.61   0.88664386 
  322000    378.92136    35.778083    136381.23   0.89528642 
  323000    360.98511   -61.364737    142429.71   0.85726681 
  324000    374.66168    22.204517    136821.94   0.89240269 
  325000    392.69427    51.740461    135422.21   0.90162661 
  326000    399.93232   -24.427194    138272.34   0.88304184 
  327000    345.31555     24.17044    137402.57   0.88863157 
  328000    379.19209   -7.0419512    138018.45   0.88466622 
  329000    336.21815    7.9669648    137872.28   0.88560418 
  330000    388.00889    13.253557    139634.33   0.87442868 
  331000    359.51206    12.458986    140521.89   0.86890567 
  332000    377.46892   -5.6595814    138753.06    0.8799825 
  333000    371.21977   -6.9777283     137876.1   0.88557961 
  334000    343.61736    10.544911    137672.53   0.88688908 
  335000    392.12366    9.7959098    137357.89   0.88892067 
  336000    344.46367   0.47853575    138429.72   0.88203791 
  337000    378.60003   -18.271311    138383.63   0.88233171 
  338000    368.66803    41.479027    135689.07   0.89985332 
  339000    362.28423     -2.66472       136811     0.892474 
  340000    399.02133   -38.946619    140184.71   0.87099561 
  341000    344.44773    27.518406    136000.11   0.89779533 
  342000     409.9605    16.073482    134060.06   0.91078777 
  343000    371.75552    1.7767587     133336.9   0.91572746 
  344000    394.17825   -12.933362    133285.45   0.91608098 
  345000    352.83317    60.704346    130838.51   0.93321346 
  346000    381.67401   -32.458278    135912.45   0.89837437 
  347000    399.68602    63.200419    130783.78   0.93360403 
  348000    324.66159    7.3961631    131956.29   0.92530841 
  349000    351.56199   -3.3071026    133634.84   0.91368586 
  350000    368.17818   -3.3115685    132861.58   0.91900352 
  351000    390.52658     23.37791    132139.14   0.92402801 
  352000    369.62304   -33.589627    135720.51   0.89964486 
  353000    349.81006    7.4122666    134598.81   0.90714223 
  354000    422.07921   -25.591219    137470.37   0.88819331 
  355000    328.68264    4.2656715    135279.96   0.90257463 
  356000    409.87293   -25.994953    137793.36   0.88611135 
  357000    341.64688   -55.881557    137156.32   0.89022705 
  358000    378.31361   -10.553936    136397.52   0.89517947 
  359000     353.5631   -48.045274    138845.76     0.879395 
  360000    382.75465   -35.710931    138173.34   0.88367456 
  361000    366.35701    15.470016    132513.21   0.92141954 
  362000    368.29256    56.391047    130177.91   0.93794919 
  363000    363.05746   -16.717888    132773.34   0.91961433 
  364000    371.37041   -50.655402    135060.39   0.90404197 
  365000    381.03965    9.9214939    134156.22   0.91013495 
  366000    368.33163   -18.799924    136748.17   0.89288406 
  367000    366.29059   -24.982352     139985.2   0.87223694 
  368000    381.31808   -8.6035013    143573.14   0.85043946 
  369000    363.27111     44.16709    139796.86   0.87341207 
  370000    353.82471   -12.036223    141962.11    0.8600905 
  371000    383.36251   -31.889006    143754.66   0.84936562 
  372000    387.04947    4.9128433    139090.47   0.87784783 
  373000    375.53406    23.436458    134017.09   0.91107982 
  374000    384.49653     11.09964    134714.38   0.90636403 
  375000    371.47918   -38.212931     137416.2   0.88854347 
  376000    350.96696   -8.4588877     134911.7   0.90503835 
  377000    356.80082    7.3458361     133444.4   0.91498979 
  378000    385.02947    9.9462123    133436.53   0.91504376 
  379000    347.83288    17.022451     133271.7    0.9161755 
  380000    388.63107   -16.564283     135428.6   0.90158403 
  381000    401.32842   -27.156855    134929.81    0.9049169 
  382000    312.57714   -62.027263    135582.38   0.90056146 
  383000    376.11556   -17.909878    134515.08   0.90770687 
  384000    377.57275    59.537842    132804.72   0.91939704 
  385000    382.69606     45.95314    135401.28   0.90176593 
  386000    381.40815    -14.93083    139222.15   0.87701752 
  387000    366.47389   -25.503828    139324.65   0.87637231 
  388000    390.24456   -2.1753269    137983.24   0.88489201 
  389000    356.94328   -5.3710861    139052.71    0.8780862 
  390000    355.86037    2.3613781    136434.79     0.894935 
  391000     372.2689   0.72729378    135619.77   0.90031319 
  392000    404.56685    44.654735    134421.91     0.908336 
  393000    338.11555    59.535863    131523.38   0.92835404 
  394000      404.973    11.296936     135896.2   0.89848183 
  395000    372.55167    29.102527    133212.51   0.91658256 
  396000    395.56092   -20.241739    135371.52   0.90196417 
  397000    356.92802   -65.388926    138658.35   0.88058354 
  398000    358.47924   -62.442722    142906.09   0.85440911 
  399000    352.38649     32.83148    139331.96   0.87632629 
  400000    379.53021   -4.0195451    141441.97   0.86325342 
  401000    365.96543   -9.5274535    140485.15   0.86913291 
  402000    385.38134    5.1713231    139349.22    0.8762178 
  403000    354.83276   -20.620663    138606.42   0.88091346 
  404000    374.72661   -38.049995    137290.98   0.88935384 
  405000    342.97384   -12.731563    133651.12   0.91357457 
  406000    375.58482   -37.765286       131566   0.92805336 
  407000    365.81225    11.249444    125842.62   0.97026159 
  408000    348.18658   -44.122644    126387.59   0.96607797 
  409000    425.09364    3.4297919    125308.99   0.97439349 
  410000    344.66853   -3.6092583    127943.47   0.95432976 
  411000    391.04949    80.365456    125365.71   0.97395267 
  412000    366.87617    27.471279     127943.3   0.95433106 
  413000    379.51889    6.7046878    129713.88    0.9413045 
  414000    365.62475   -36.471254    131045.39   0.93174026 
  415000    411.88356    -4.025945    132382.83   0.92232705 
  416000    357.63956      -3.5135    131085.01   0.93145866 
  417000    388.96893    89.527092    128534.49   0.94994162 
  418000    340.30672    8.1348101    130146.91   0.93817259 
  419000    392.93791   -13.318912    133651.22   0.91357385 
  420000    355.09664   -46.140435     134716.4   0.90635043 
  421000    401.95179    49.324436    130278.14   0.93722758 
  422000    367.08899   -26.351728     128956.4    0.9468337 
  423000    363.49608    62.091956    125712.82    0.9712634 
  424000    405.66857    2.9721887    128238.94   0.95213096 
  425000    381.52302    35.709241     124670.3   0.97938533 
  426000    383.26804    63.766086    125789.74    0.9706695 
  427000    387.32915    35.948331    127215.74   0.95978895 
  428000    408.26915    28.629038    127917.32   0.95452489 
  429000    388.25855    21.439603       129796   0.94070895 
  430000      359.771   -59.411542    135087.15   0.90386292 
  431000    362.49672    20.368104    130723.16   0.93403697 
  432000    415.12602     58.55636    131236.56   0.93038298 
  433000    365.65185   -26.816837       135133   0.90355622 
  434000    367.06742   -21.715015    137238.27   0.88969542 
  435000    405.99612    35.438406    134522.33   0.90765796 
  436000    344.73184    23.426956       134884   0.90522425 
  437000    402.71877    32.686154    135327.19   0.90225965 
  438000      348.843   -29.586714    141047.66    0.8656667 
  439000    397.79828    27.794341    138745.54   0.88003019 
  440000    392.06975   -3.0269836    140815.44   0.86709426 
  441000    359.14611   -39.480677    140843.76   0.86691992 
  442000    356.90433    25.483984    136904.17   0.89186664 
  443000    399.71852    79.441668     135600.3   0.90044242 
  444000     381.0639    55.896372    139067.09   0.87799538 
  445000    373.16656   -14.526981    141751.39   0.86136906 
  446000    371.77614    22.670537    141055.26   0.86562005 
  447000    382.11184   0.42076767    140307.08   0.87023597 
  448000    359.76301     70.01278    136531.25   0.89430272 
  449000    381.84381   -63.058499     142849.6   0.85474695 
  450000    388.97614    19.540498    138076.91   0.88429167 
  451000    354.57088   -8.3344892    136284.57   0.89592139 
  452000    387.85335    14.641115    135199.17   0.90311401 
  453000    372.29535    36.107835    133067.58   0.91758088 
  454000     422.5187    34.684996    133134.13    0.9171222 
  455000     372.7868     54.22238    130091.24   0.93857409 
  456000    416.77575   -35.688476    134344.85   0.90885702 
  457000    334.48653    70.657694    133247.91   0.91633909 
  458000    371.39933   -45.541029    137234.16   0.88972211 
  459000    358.28558   -63.674355    139541.24   0.87501201 
  460000    380.76248    23.005496    136120.68   0.89700012 
  461000    355.77916    61.185713    134657.27   0.90674838 
  462000    369.05773    15.550299    137101.32   0.89058418 
  463000    397.41609    26.193687    137614.23   0.88726483 
  464000    357.94669   -10.078093    137592.49   0.88740503 
  465000    365.73562   -12.093336    137800.41   0.88606602 
  466000    417.68025     12.41674    138875.72   0.87920527 
  467000    351.51968   -23.539828    140909.71    0.8665142 
  468000    381.73094    10.926269    137233.36   0.88972725 
  469000    371.96634    15.405925    137642.52   0.88708243 
  470000    356.37397    11.542986    138437.14   0.88199066 
  471000    414.43442   -9.9836463    141886.81   0.86054699 
  472000    354.81577    -17.10051    138256.39   0.88314373 
  473000     388.6577    49.544522    132025.05   0.92482652 
  474000    380.99364   -13.401007    133570.47   0.91412618 
  475000     376.1795    15.152347    132416.38   0.92209334 
  476000    356.04391    25.878071    134190.13   0.90990497 
  477000    377.74082    6.2625875    136701.57   0.89318847 
  478000    349.71497    17.077677    137238.99   0.88969079 
  479000     383.0085   -4.2967166    136116.79   0.89702576 
  480000    388.65635   -36.893851    137858.61   0.88569196 
  481000    366.80958    26.947451    136082.79   0.89724985 
  482000    393.69687    35.139347    137278.48   0.88943485 
  483000    331.10304   -76.055957    143736.77   0.84947134 
  484000    378.91594    -14.22845    140568.53   0.86861734 
  485000     382.8167   -30.378504    141972.97   0.86002475 
  486000    345.97324    49.347361     138979.9    0.8785462 
  487000    381.79309    10.364968    140649.87   0.86811501 
  488000     371.4754   0.51782674    141003.74   0.86593634 
  489000    378.96322   -1.6590384     141431.3   0.86331857 
  490000    340.99553   0.75607465    143919.92   0.84839027 
  491000    363.23624    6.2011456    144395.51   0.84559597 
  492000    378.91518    34.427623    146788.34   0.83181176 
  493000     387.6631    19.879848    150102.03   0.81344845 
  494000    369.97053    -55.78809    151976.58     0.803415 
  495000    365.66146   -26.997693     149566.4   0.81636159 
  496000    349.48486    1.7969542    145477.45   0.83930713 
  497000    414.76746    64.672271    140083.71   0.87162354 
  498000     393.5368    63.244889     138856.8   0.87932505 
  499000    354.44567   -28.754114    143136.53   0.85303354 
  500000    392.95854    4.8789795    140547.34   0.86874828 
  501000    365.16282   -8.0071476    140692.73   0.86785058 
  502000    354.34535   -28.386952    141380.51   0.86362868 
  503000    418.51978   -4.1457925    142905.95   0.85440994 
  504000    327.04883    15.823069    142161.38   0.85888493 
  505000    377.78524   -21.478812    147442.12   0.82812337 
  506000    364.04005   -33.626724    146763.28   0.83195376 
  507000    372.49022   -44.286342    144439.34   0.84533941 
  508000    367.18819   -36.960877    147312.51   0.82885194 
  509000     338.1699   -49.275358    147918.66   0.82545543 
  510000    369.44651    29.818237    140063.03   0.87175224 
  511000    378.62811    64.600512    139587.55   0.87472171 
  512000       348.99   -28.703325    143379.89   0.85158571 
  513000    384.90932    53.404918    136380.61   0.89529048 
  514000    366.86393    20.629242    138871.44   0.87923233 
  515000    377.60589    73.323709    134761.33   0.90604819 
  516000    394.77407     5.431101    140286.55   0.87036331 
  517000    340.38615    41.225203    135319.92   0.90230816 
  518000    392.06165   -18.140313    136782.84   0.89265777 
  519000    399.87717   -3.8790335    134789.71   0.90585747 
  520000    351.60454   -67.358999    136460.87   0.89476389 
  521000    376.79297   -5.3937391    132889.09   0.91881328 
  522000    371.72186    18.149738    130390.29   0.93642146 
  523000      383.585   -45.828795    135647.56   0.90012874 
  524000    350.95065    86.695579    130222.34   0.93762917 
  525000    376.19941    24.642953    131294.89   0.92996963 
  526000    362.43198   -67.170318    134565.06   0.90736976 
  527000    377.04064     -103.576    139911.05   0.87269921 
  528000    359.12583    30.537294    134503.71   0.90778363 
  529000    365.57744    24.954269    135372.55    0.9019573 
  530000    382.77878    14.189461    139274.95   0.87668505 
  531000      360.332    9.0825441    137989.37   0.88485269 
  532000    380.50047   -26.734991    141355.19   0.86378339 
  533000    373.22129     46.87062    139820.79   0.87326257 
  534000    388.47154   -27.408222    140851.54   0.86687208 
  535000    373.72463    14.546548    138541.61   0.88132554 
  536000    359.28349    27.226874    137765.23   0.88629228 
  537000    389.00113    24.989977    140280.32   0.87040196 
  538000    364.67101     0.256021    139963.16   0.87237429 
  539000    424.89071    2.8343749    142511.14   0.85677698 
  540000     375.6416    6.0640145    141352.49   0.86379987 
  541000    397.41677   -56.055273    144923.07   0.84251776 
  542000    363.96892  0.097584795    143100.46    0.8532486 
  543000    390.99985   -10.790518    141647.06   0.86200354 
  544000    374.88426   -19.917027     141179.9   0.86485588 
  545000    350.67382   -13.359235    140548.61   0.86874046 
  546000    365.90787   -52.932888    142980.14   0.85396662 
  547000    392.05214    11.218132    140095.64   0.87154937 
  548000    373.08947    22.162105    141891.16   0.86052057 
  549000    349.62737   0.43224048    143344.32   0.85179702 
  550000    415.61456   -21.552426    142633.67   0.85604096 
  551000    363.51965   -10.375821    140073.38   0.87168782 
  552000    391.69965    18.223234    139254.66   0.87681277 
  553000     360.9516   -51.602837    141039.26   0.86571827 
  554000    388.61397    60.096019    138651.47   0.88062725 
  555000     343.6553    9.1296471    141869.95   0.86064924 
  556000     385.9179    8.9118356    143376.88    0.8516036 
  557000     407.8295   -18.398832    144363.69   0.84578237 
  558000    344.56568   -67.871125    146991.51   0.83066202 
  559000    398.99954    12.519506    141556.17   0.86255701 
  560000    407.84681   -11.132271    141901.28   0.86045924 
  561000    363.95289   -14.527281     138885.6   0.87914275 
  562000    389.96251   -9.9130556    136543.24   0.89422414 
  563000    362.06735   -32.507761    137445.04   0.88835703 
  564000    402.93347    16.728961    138391.61   0.88228085 
  565000    344.87315    71.556094     134235.1   0.90960013 
  566000    386.67269   -19.300856    138525.54   0.88142781 
  567000    351.85453   0.61425228    138722.04   0.88017926 
  568000    396.05239   -7.1308649    141741.46   0.86142943 
  569000    395.41888   -18.966483    144660.27   0.84404838 
  570000      403.185  -0.28678574    139741.42   0.87375858 
  571000    350.15168    14.828801    134620.72   0.90699461 
  572000    374.43337   -38.729937    136915.72   0.89179144 
  573000    373.04989    21.395594    133765.49   0.91279346 
  574000    382.18422    43.589689     132416.1   0.92209531 
  575000    381.24663   -43.266241    138128.61   0.88396073 
  576000    364.22717   -22.637576     138300.5   0.88286205 
  577000    365.74807   -35.578698    142777.51   0.85517855 
  578000     361.7878    77.184858    135374.14   0.90194672 
  579000    353.05526    32.361964    136433.44   0.89494379 
  580000    377.47761   -48.258558    142363.08   0.85766801 
  581000    369.68146   -42.416615    141883.79    0.8605653 
  582000    365.18995    11.749594    136964.74   0.89147224 
  583000    398.95249    2.4681708    140649.05   0.86812008 
  584000    354.05957    22.267423    140045.41   0.87186192 
  585000    436.28501    19.725472    141777.03   0.86121331 
  586000    361.46983   -1.4017724     140759.7   0.86743768 
  587000     369.9124    -53.20098     138885.4   0.87914399 
  588000    361.16029    132.58526    131672.76   0.92730088 
  589000    348.54906    46.536246    133606.16   0.91388197 
  590000    393.40245   -2.2907537    133796.34   0.91258302 
  591000    365.73122    19.175426    134595.11   0.90716713 
  592000    413.78466    20.987641    134454.81   0.90811377 
  593000    361.78179   -34.756934    138302.42   0.88284978 
  594000    432.40364    35.708029    132865.47   0.91897662 
  595000    359.63734     46.79359    131717.42   0.92698648 
  596000    370.88513    24.325915    135205.73   0.90307018 
  597000    378.17845   -23.110985    139477.52   0.87541175 
  598000    373.09052   -4.6413228    138479.68   0.88171971 
  599000      372.214    68.278827    136276.76   0.89597272 
  600000    398.60977   -10.045832    137662.79   0.88695181 
  601000    361.01539   -20.299735    136206.31   0.89643615 
  602000    380.34438    17.966125    139076.44   0.87793636 
  603000    363.46328   -17.435898    141940.09   0.86022393 
  604000    350.95024   -27.292112    138849.31   0.87937247 
  605000    350.70338    55.337161     135150.8   0.90343721 
  606000    372.39067    71.439372    131892.79   0.92575392 
  607000    384.83833   -26.926112    134748.79   0.90613256 
  608000    330.81691   -22.624857    136370.24   0.89535858 
  609000     380.5982   -36.520362    138306.09   0.88282635 
  610000    383.57343    13.740178    138072.55   0.88431962 
  611000    356.60003   -20.864132    139752.72   0.87368794 
  612000    374.99826    7.9113025    138467.18   0.88179932 
  613000    372.87124    30.818454    136953.43   0.89154584 
  614000    323.62797    30.186677    136224.19   0.89631854 
  615000    384.39656     25.04855    137705.75    0.8866751 
  616000    338.40361   -15.869905    140298.24   0.87029075 
  617000    401.61637   -14.731276    139996.35   0.87216747 
  618000    357.50703    27.035537    132805.67   0.91939046 
  619000    381.29228    31.414529    132050.02   0.92465159 
  620000    344.72896   -13.422071    134767.02   0.90600994 
  621000    406.97992    27.493569    132225.39   0.92342522 
  622000    366.98995      45.8535    129699.95   0.94140566 
  623000    370.37476   -39.333552    135491.57   0.90116503 
  624000    435.78545    30.018721    131893.81   0.92574671 
  625000    359.49513   -1.4780514    133933.43   0.91164892 
  626000    367.46233    69.082499    131035.04   0.93181381 
  627000    378.21294   -30.829636    133057.85   0.91764799 
  628000    386.76852    43.715899    128590.34   0.94952902 
  629000    350.72439   -24.419877    132598.29   0.92082837 
  630000    345.37051    1.2937347    131824.66   0.92623232 
  631000    397.79209    28.550326       132849   0.91909061 
  632000    360.27326     27.06134    133557.87   0.91421243 
  633000    406.38494    -14.18185    139936.07   0.87254318 
  634000     363.1364    53.360553    137753.93     0.886365 
  635000     379.7829   -14.112982    142234.42   0.85844384 
  636000    372.35518    31.882914    139128.57   0.87760742 
  637000    391.84275   -37.564564    137052.87   0.89089898 
  638000    370.96944    -13.42016    134802.47   0.90577171 
  639000     356.5067    17.322597    137071.77   0.89077617 
  640000    382.15046   -6.2954337    139744.72   0.87373797 
  641000    370.02761    22.358778    137003.57   0.89121955 
  642000    366.37094    32.926432    137791.11   0.88612584 
  643000    379.87692   -33.669789    141385.35   0.86359915 
  644000     401.3399   -48.766814    142126.25   0.85909722 
  645000    380.87796   -26.821641    141022.23    0.8658228 
  646000    378.32213    12.687814     140553.9   0.86870778 
  647000    358.77031   -13.501996    142013.37   0.85978008 
  648000     355.9154    -31.29275    141368.09   0.86370454 
  649000    437.75719   -8.4370666       139533   0.87506369 
  650000    415.16658    72.180902    135327.93    0.9022547 
  651000    333.37419   -3.8317371    136191.01   0.89653688 
  652000    374.35522   -24.288126    137379.55   0.88878046 
  653000    382.98678    44.408963    132702.65   0.92010421 
  654000    310.98576    27.775863     134464.8   0.90804631 
  655000    363.02807     27.26763    135580.55   0.90057361 
  656000    391.90486   -38.548257    138949.44   0.87873882 
  657000    346.82127    46.437623    130660.33   0.93448612 
  658000    374.37703   -4.0843109    131763.23   0.92666415 
  659000    372.87951   -54.004457    132188.15   0.92368543 
  660000    323.68761   -15.180253    130896.62   0.93279923 
  661000    371.97558    29.843247    131520.27     0.928376 
  662000     416.9418   -15.052105    134880.49   0.90524775 
  663000    365.16123   -32.751348    136171.22   0.89666721 
  664000     358.5143   -49.192449    138017.34   0.88467337 
  665000    373.31549   -65.946347    138836.41   0.87945421 
  666000    375.82658    71.491446    132273.66   0.92308827 
  667000    389.52563    47.819285     135535.8   0.90087097 
  668000    373.96544   -34.090692    139205.74   0.87712089 
  669000    356.36886    9.6771797    137202.22   0.88992923 
  670000    380.63362   -44.678804    137449.13    0.8883306 
  671000    382.02029    36.923583    136461.79    0.8947579 
  672000    375.78447   -37.607303    139086.87   0.87787051 
  673000    384.85651    -26.51904    141129.86   0.86516248 
  674000    406.66848   -22.296699    142863.48   0.85466395 
  675000    369.93771   -13.711595    141029.29   0.86577948 
  676000     389.1175   -55.561573    140670.13   0.86798997 
  677000    371.33257   -15.305582    137093.57   0.89063448 
  678000     369.4352    24.564182    133886.87   0.91196591 
  679000    388.39453    14.501954    136395.94   0.89518984 
  680000    366.31497   -5.9194283    139943.51    0.8724968 
  681000    367.47552   -58.001558    140291.36   0.87033343 
  682000    370.83829   -43.773262    137264.77   0.88952369 
  683000    348.12107   -32.166375     134755.3   0.90608879 
  684000    362.67869   -6.3301072    134750.29   0.90612249 
  685000    363.70771   -64.193341    137047.85   0.89093161 
  686000    379.49476    -66.09604    138458.03   0.88185761 
  687000    350.70375   -107.18115    138715.93   0.88021805 
  688000    404.71985    8.0814428    133809.05   0.91249629 
  689000    366.94493    50.603873    132383.59   0.92232174 
  690000    379.02651    26.648953     133450.6   0.91494729 
  691000     365.4948    52.995459    133848.73   0.91222577 
  692000    403.64279    21.856042    136609.13   0.89379285 
  693000    380.47617    54.794244     137090.9   0.89065187 
  694000    371.85883    17.162698    139266.16   0.87674036 
  695000    397.50497    88.887717    133061.14    0.9176253 
  696000    370.28569    54.360695    135713.72   0.89968993 
  697000    365.80623   -59.426754    140278.46   0.87041351 
  698000    356.78604     20.31206     132306.3   0.92286057 
  699000    388.68529    20.916722    133372.87   0.91548053 
  700000    368.17161    34.914167    132480.13   0.92164965 
  701000    374.54131   -34.423031     130779.1   0.93363747 
  702000    338.67017    32.708683    130060.54   0.93879558 
  703000    371.69082    1.5019983    130735.83   0.93394642 
  704000    376.03387   -43.340724    135215.73   0.90300338 
  705000    328.67294    21.316966    129886.14   0.94005618 
  706000    447.00899    85.276932    127351.96   0.95876237 
  707000    359.13309    33.115807    130016.59   0.93911296 
  708000    389.02787   -5.2159357    134796.33     0.905813 
  709000     371.2103   -7.6506115    131586.52   0.92790857 
  710000    372.71709    57.217645    127124.18   0.96048024 
  711000    376.23873   -49.307031    133242.49    0.9163763 
  712000      363.598    15.484249    132177.24   0.92376161 
  713000    388.76871    69.400368    129929.41   0.93974308 
  714000    379.19133    2.1310046    134181.67   0.90996234 
  715000    352.38164    11.457692    133727.17   0.91305503 
  716000    411.15639   -24.669243    137139.31   0.89033744 
  717000    333.17785   -39.393446    139161.37   0.87740057 
  718000    405.37808   -42.019723    140471.48   0.86921747 
  719000    340.96518   -18.912589    138126.64   0.88397331 
  720000    411.49414    6.7669571    140540.55   0.86879026 
  721000    366.40231   -1.4684486    139958.02   0.87240632 
  722000    375.36118   -2.1577948    138857.63   0.87931981 
  723000    356.13712    79.332491    136898.08   0.89190631 
  724000    441.38411     33.71394    140478.33   0.86917507 
  725000    333.11245   -50.579378    142626.36   0.85608482 
  726000    369.71013    -38.25301    143158.89   0.85290033 
  727000    352.10154   -16.911991    142199.53   0.85865449 
  728000    388.28248    85.739976    136349.57    0.8954943 
  729000    352.94055    23.167326    138248.19    0.8831961 
  730000    389.64767    52.908112    138123.37   0.88399426 
  731000    369.06962    28.485837    140073.84   0.87168497 
  732000    372.04113   -26.325573    146307.08   0.83454789 
  733000    360.50903   -39.638686    147720.83    0.8265609 
  734000    367.13462   -37.311569    145450.18   0.83946448 
  735000     381.9161    47.366771    140438.26    0.8694231 
  736000    367.22014   -2.6368391       140423   0.86951758 
  737000    352.39353    40.026959     138159.5   0.88376307 
  738000    399.97216    20.264417    138837.19   0.87944928 
  739000    360.00117    69.753301    135405.91    0.9017351 
  740000    370.55427   -22.646783    140519.46   0.86892065 
  741000    381.98849    10.016927    139688.49   0.87408963 
  742000    359.13362   -36.016615    144399.97    0.8455699 
  743000    385.43914    62.649275     141369.9   0.86369353 
  744000    360.46688    15.626018    144321.06   0.84603221 
  745000    404.11786   -47.973524    147192.91   0.82952542 
  746000    360.93899   -20.827341    144506.41   0.84494706 
  747000    397.34006   -27.704007    145985.95   0.83638369 
  748000    361.42039   -10.238665    144989.07   0.84213425 
  749000    381.96999    7.0186545    143433.97   0.85126459 
  750000    373.79167   -6.2397575    140656.36   0.86807499 
  751000    371.34931      2.50647    139127.21     0.877616 
  752000    377.78637   -25.914679    142017.63    0.8597543 
  753000     398.2082   -16.189855    143023.02   0.85371055 
  754000    361.86064    5.6305785    135150.45   0.90343957 
  755000    376.11639    4.9531924    137043.26   0.89096149 
  756000    346.56388    20.559544    137437.01   0.88840889 
  757000    392.93655    44.671598    135726.28   0.89960666 
  758000      374.272   -3.3829396    135971.81   0.89798217 
  759000    358.73763    11.896568     136958.5   0.89151288 
  760000    375.28183    1.0199579    136018.04   0.89767699 
  761000    352.36512   -40.382351     138194.2   0.88354116 
  762000    333.35689     -19.0694     136882.9   0.89200521 
  763000    416.13744    42.289688    133889.15   0.91195039 
  764000    384.89801   -5.7980709    134373.83   0.90866104 
  765000    347.62422   -48.673268    134998.65   0.90445546 
  766000    381.85047   -60.174247    137897.71   0.88544087 
  767000    355.64694    15.985631    131725.21   0.92693165 
  768000    388.19803   -7.6206395    133947.83    0.9115509 
  769000    336.40776    38.904282    130060.89   0.93879309 
  770000    399.95729   -22.007229    133366.64   0.91552331 
  771000    346.47102    10.524042    132858.03   0.91902811 
  772000    369.91439   -8.0658285    136890.38    0.8919565 
  773000    382.84339    73.957327    132525.86    0.9213316 
  774000    382.59533    12.392899    135672.13   0.89996568 
  775000    333.44894    -49.86359    137293.67   0.88933646 
  776000    369.73498    27.044239    136782.24   0.89266168 
  777000    384.33805    28.358972    136055.46   0.89743007 
  778000    365.52876    27.848506     136662.6   0.89344318 
  779000    386.92209   -34.480406    140699.41   0.86780933 
  780000     358.8851     28.76909    135767.43   0.89933401 
  781000    369.95373   -32.472471    137642.91   0.88707996 
  782000    350.75726    -34.15123    141575.85   0.86243708 
  783000    400.01381    29.735086     140499.6   0.86904352 
  784000    340.63504     13.22184    137264.54    0.8895252 
  785000    409.22013    64.091522    136332.87   0.89560403 
  786000    383.84097    59.782008    137660.74   0.88696506 
  787000    358.09008   -21.015118    140096.61   0.87154331 
  788000    388.60791   -5.5785994    140162.97   0.87113071 
  789000    395.18114    54.481654     134943.3    0.9048264 
  790000    354.47577    24.295229    139126.85   0.87761827 
  791000    394.98749   -28.759195    141984.63   0.85995411 
  792000    361.63493    20.700259    140144.05   0.87124828 
  793000    392.41664    3.7508064    141022.26   0.86582263 
  794000     355.9989   -33.359719     139907.2   0.87272322 
  795000    369.08465   -30.137825     137536.8   0.88776431 
  796000    383.50648   -34.141355    137430.36   0.88845187 
  797000    365.03202    11.052668    136009.37   0.89773422 
  798000    385.37377   -24.437096    137094.44   0.89062884 
  799000    413.79812    -14.07677    135174.55   0.90327851 
  800000    367.59741   -5.7299219    135764.15    0.8993557 
  801000    378.36082   -1.5450674    134133.31   0.91029042 
  802000    331.97339   -37.890851    136533.24   0.89428967 
  803000    402.57373    18.706766     134286.1   0.90925464 
  804000    351.80312   -67.072224     140115.7   0.87142457 
  805000    389.07889   -10.807959    139827.11   0.87322311 
  806000    365.16272   -66.046412    143953.24   0.84819393 
  807000    387.53392    51.586034    137871.41   0.88560977 
  808000    333.38183    22.607611    139487.35    0.8753501 
  809000    341.10045    49.036492    136621.42   0.89371243 
  810000    396.37394   -41.885358    139928.79   0.87258856 
  811000    363.08736     63.16097    135210.91   0.90303561 
  812000    382.36856   -28.329191    140605.32   0.86839006 
  813000    369.28596    10.984985    137596.92   0.88737646 
  814000    359.64758    21.794813    137196.73   0.88996482 
  815000    402.96853    1.2036972    138689.34   0.88038683 
  816000     331.4918   -81.932551    140639.36   0.86817989 
  817000    416.09252    21.469055    134145.22   0.91020956 
  818000    368.05272   0.67157324    134113.73   0.91042331 
  819000    383.51694   -4.8655457    138098.38   0.88415424 
  820000    366.06517    2.2545274    137597.61   0.88737198 
  821000    396.81066    7.0561062    137071.55   0.89077756 
  822000    367.33254    18.031625    136340.89   0.89555129 
  823000    364.36381   -41.525805     139094.4     0.877823 
  824000    423.97101   -38.330429    140065.85   0.87173474 
  825000    338.39941    49.435707    134337.69   0.90890547 
  826000    396.90374    80.472352    133224.04   0.91650322 
  827000    400.42455    8.5759138    135372.99    0.9019544 
  828000    346.96558     36.06812    133437.62   0.91503629 
  829000    375.17073   -1.2242222    133525.75   0.91443235 
  830000    349.11641   -44.737628    134370.04   0.90868668 
  831000    336.97068   -17.791698       133670   0.91344552 
  832000    411.25525    -48.65992    134823.73   0.90562891 
  833000    348.31692   -16.950917    131622.39    0.9276557 
  834000    387.18651   -3.6514221    129473.24   0.94305405 
  835000    369.58211    5.6819586    128460.95   0.95048545 
  836000    374.67497   -12.784641    129664.71   0.94166151 
  837000    373.19271   -33.934627    132656.55   0.92042397 
  838000    388.49548   -26.682376    134955.61   0.90474391 
  839000    363.57884   -10.349048    134863.16   0.90536412 
  840000    359.39353   -56.245863     136219.8   0.89634743 
  841000    381.59576    13.649668    132912.57   0.91865102 
  842000     358.9093   -60.909405    130781.16   0.93362275 
  843000    384.89435   -2.6165209    129922.67   0.93979183 
  844000    357.56154    11.608572    130996.68   0.93208674 
  845000    345.01611    4.2600282    130375.83    0.9365253 
  846000    335.71125    -15.53686    130296.85   0.93709298 
  847000    358.01287   -50.996362    132653.05   0.92044821 
  848000    369.19056   -57.895332    132769.15   0.91964335 
  849000    382.01487    3.3336692    129841.23   0.94038132 
  850000    354.95261    58.748339     128925.2   0.94706283 
  851000    344.46823   -30.727811    132533.12   0.92128111 
  852000    374.78308   -25.776514    134934.77   0.90488359 
  853000    390.49764    65.338499    131935.19   0.92545635 
  854000    351.96117   -73.989534    138159.53   0.88376288 
  855000    376.71069    43.986376    132013.21   0.92490945 
  856000    388.69322   -32.054439    137850.97   0.88574108 
  857000    362.49431   -50.450173     139334.8   0.87630844 
  858000    361.17957    8.1757005    132527.37   0.92132109 
  859000    386.04711   -17.648953    133146.59   0.91703636 
  860000    351.53548    -3.812013    129794.82   0.94071755 
  861000    375.38454    75.032518    127145.07   0.96032246 
  862000    378.53399    50.885186    128792.52   0.94803848 
  863000    361.27859   -34.260198     132600.4   0.92081371 
  864000    377.72004    11.568908     132594.8    0.9208526 
  865000    366.06687    5.9177701    131096.77   0.93137507 
  866000    419.29262    17.279017    133115.69   0.91724924 
  867000    364.88722   -2.2164848    131624.55   0.92764048 
  868000    381.16899   -12.245277    131641.09   0.92752393 
  869000    363.59172    -28.42231    133641.23    0.9136422 
  870000    375.39485    16.789149       132582   0.92094148 
  871000    364.49182    3.3702012    132221.11   0.92345512 
  872000    377.91842    42.441178    131906.01    0.9256611 
  873000    389.52043   -27.596502    134827.74   0.90560198 
  874000    349.45942    58.402411    130526.69   0.93544291 
  875000    388.55739   -43.870203    137949.99   0.88510527 
  876000    351.87686   -61.692625    137948.52   0.88511471 
  877000    398.60297    7.8101595    133413.84    0.9151994 
  878000    415.25921   -32.990686    134999.93    0.9044469 
  879000    366.63969   -37.271074    135638.57    0.9001884 
  880000    363.41918   -45.356246    136624.25   0.89369396 
  881000    413.97639    25.771755    135276.57   0.90259728 
  882000    352.15199   -18.188527    137431.68   0.88844337 
  883000    376.78542    48.810705     134668.9   0.90667006 
  884000    409.60184    31.712793    135139.98   0.90350955 
  885000    336.86486    13.365154    133785.03   0.91266017 
  886000     380.8792    68.150215    134242.98   0.90954672 
  887000     379.9801    39.359697    135505.04   0.90107543 
  888000    371.65827   -60.734736    140504.35    0.8690141 
  889000    385.62695   -16.346983    136579.22   0.89398856 
  890000    315.65389   -76.483122    139230.63   0.87696408 
  891000    360.37629    55.306489    132599.22   0.92082187 
  892000    364.45034    25.254176    132298.05   0.92291811 
  893000    399.04267    42.187273    131225.42   0.93046199 
  894000     395.1993     9.529376    132732.27   0.91989885 
  895000    374.35568    4.0701851    134701.92   0.90644783 
  896000    373.59713   -91.995828    140008.98   0.87208883 
  897000    366.44305    4.8414445    134042.33   0.91090827 
  898000     374.2619   -3.4959447    139136.88   0.87755499 
  899000    388.98664   -48.384616    144561.62   0.84462436 
  900000    369.61444     47.38759    139544.03   0.87499456 
  901000    409.00944   -13.454483    139732.53   0.87381415 
  902000    381.64492   -8.3108926    137137.35   0.89035015 
  903000    332.67549    -5.401828    134126.53   0.91033641 
  904000    385.78488   -11.225574    138155.06   0.88379146 
  905000    362.65932    2.8841816    139063.86   0.87801581 
  906000    356.71826    31.353864    138075.13   0.88430309 
  907000    396.69603   -9.9527284    140979.94   0.86608253 
  908000    382.12039   -32.697842    141250.35   0.86442449 
  909000    375.87957   -19.273225    138093.92   0.88418276 
  910000     348.6941     9.231257    136303.94   0.89579409 
  911000    363.65588   -22.959103    138272.22   0.88304263 
  912000      378.039    22.963863    135450.46   0.90143851 
  913000    355.86172   -14.608743    134859.79   0.90538674 
  914000    400.08011    9.6173338    134315.95   0.90905261 
  915000     402.0265    1.2594515     133402.8   0.91527515 
  916000    368.34131    28.329005    131015.38    0.9319537 
  917000    386.27174    -18.44507    132987.38   0.91813424 
  918000    356.34124   -38.330437    132638.82   0.92054698 
  919000    393.30773   -7.9800144    135458.49   0.90138511 
  920000    364.07238    16.586559    132487.87   0.92159581 
  921000     373.8649   -27.884039    134513.97   0.90771435 
  922000    378.22267    36.565478    129417.44   0.94346064 
  923000    356.01825   -18.327195    131511.87   0.92843533 
  924000    391.98826   -52.138284    135252.07    0.9027608 
  925000    375.56506    38.563304    133222.32   0.91651509 
  926000     358.5824    25.160366    136519.97   0.89437656 
  927000    374.82763   -44.096269    140809.22   0.86713257 
  928000    373.04889   -15.311673    136603.49   0.89382973 
  929000     354.1707    5.1613071    134424.96    0.9083154 
  930000    410.24829    62.152817    133282.08    0.9161041 
  931000    388.79347    20.381028    133668.88   0.91345318 
  932000    365.14551   -8.8091464    136818.71   0.89242375 
  933000    396.79519    36.103011    133977.25   0.91135072 
  934000    392.46325    13.674774    133761.56   0.91282025 
  935000    366.75413   -15.160852    135500.71   0.90110423 
  936000    385.68868    60.229428    133381.67    0.9154201 
  937000    359.54388    15.932483    136698.07   0.89321135 
  938000    389.64798     19.45285    136014.26   0.89770195 
  939000    355.62438    67.369177    132846.32   0.91910914 
  940000     401.9846   -38.152837    138195.17   0.88353497 
  941000    355.50621    38.166726    131991.89   0.92505885 
  942000    373.06282    16.130743    130993.49   0.93210942 
  943000    386.04351    42.564161    129727.57    0.9412052 
  944000     367.0337    20.049663     128786.6   0.94808209 
  945000    388.93321   -4.9025636    131530.19   0.92830598 
  946000      364.963    24.210943    130779.69   0.93363319 
  947000    359.02125    9.4089083    131230.15   0.93042841 
  948000    375.38982   -12.019055     133316.5   0.91586758 
  949000    361.74194    15.655918    133147.45   0.91703044 
  950000    387.15944    4.1918953    131510.31   0.92844633 
  951000    339.51432    -5.488621    132351.83    0.9225431 
  952000    381.17642   -37.185563    135412.62   0.90169044 
  953000    357.32048    6.5431822    135240.35   0.90283903 
  954000    377.03305    28.145341    133895.85   0.91190476 
  955000    408.63873   -6.5974194    135497.72   0.90112412 
  956000    368.35388    1.7982441    133140.47   0.91707849 
  957000    355.72294    34.810909    129012.59   0.94642127 
  958000    347.19452   -49.767228    131916.64   0.92558653 
  959000    399.21399   -17.912928    129598.38   0.94214342 
  960000    345.95965    45.857434    126076.21   0.96846397 
  961000    349.95469    3.7836001    126716.22   0.96357246 
  962000    363.55358   -90.179432    130790.52   0.93355589 
  963000    352.90703   -8.6374216     125913.3   0.96971696 
  964000    373.18772   -19.950069    128687.38   0.94881303 
  965000    359.50651   -9.0316434    128086.99   0.95326047 
  966000    372.79572   -74.617988    130792.91   0.93353888 
  967000      375.484    12.753478    130660.21   0.93448698 
  968000    349.04618    17.280977    127744.98   0.95581263 
  969000    381.52021    8.3037832    129056.26   0.94610103 
  970000      364.662   -40.948901    134767.01   0.90601007 
  971000    401.80002   -7.5185048    131108.49    0.9312918 
  972000    355.69987    30.425084    129591.95   0.94219019 
  973000    381.01758    41.586504     129673.8   0.94159546 
  974000    405.36055    83.446946    128414.13   0.95083201 
  975000    358.74932    53.518739    129324.17   0.94414113 
  976000    405.42637    38.202845    129151.78   0.94540135 
  977000    351.56459    -7.403592    129934.31   0.93970766 
  978000    377.80119    62.993639    129596.25   0.94215891 
  979000    350.15535    31.653985    132757.37   0.91972493 
  980000    366.43455    8.2045342    135060.62   0.90404046 
  981000    370.90666    22.829344    138287.55   0.88294474 
  982000    375.94481    31.238506    134501.89   0.90779592 
  983000    359.34845    5.6268806    132977.42   0.91820299 
  984000    348.63647   -26.710798       136118   0.89701774 
  985000    388.48726   -66.970048    139259.85   0.87678012 
  986000    360.14164    21.602441    133963.95   0.91144119 
  987000    386.45133    17.917051    135692.87   0.89982812 
  988000    371.34637    16.994039     133880.2   0.91201134 
  989000    354.29848   -2.3252329    135358.55   0.90205059 
  990000    397.96457    7.3446322    132492.68   0.92156236 
  991000    351.36141     27.94839     129841.8   0.94037717 
  992000    391.86948    5.2140396    133903.53   0.91185244 
  993000    367.79602    -45.26751     139291.7   0.87657964 
  994000     380.4068   -32.028155    139153.09   0.87745279 
  995000    368.39638   -13.607465    139052.37   0.87808833 
  996000    359.11762   -43.149839    142002.97   0.85984306 
  997000    413.46583    -41.62954    144237.97   0.84651956 
  998000    362.05723    -8.467513    142669.71   0.85582469 
  999000    347.71929   -2.7851378       138209   0.88344655 
 1000000    349.46381    25.268094    133357.81   0.91558392 
 1001000    404.38808    11.561304    133870.75   0.91207573 
 1002000    366.84117   -2.5777917    133704.66   0.91320875 
 1003000    375.67334   -19.724213    131896.11   0.92573062 
 1004000    367.72026    14.511357     130446.6   0.93601719 
 1005000    376.37309    52.248585    128445.23   0.95060181 
 1006000    353.21604    91.846164    128194.75   0.95245915 
 1007000     394.0347   -11.969179    133504.61   0.91457717 
 1008000    384.96817   -39.876918    134657.54   0.90674659 
 1009000     351.1831    -30.06875    134970.18   0.90464622 
 1010000    389.75349    30.840864    135107.56   0.90372634 
 1011000    356.12545    29.913493    137717.63   0.88659863 
 1012000    392.56607    61.290342    138424.97   0.88206817 
 1013000    414.74468    13.807751    140904.98   0.86654328 
 1014000    361.57833   -21.203655    142409.31   0.85738962 
 1015000    377.97497    34.806754    138912.92   0.87896983 
 1016000    366.62541    31.989635    137348.15   0.88898371 
 1017000    382.81185    22.044114    136181.41   0.89660007 
 1018000    356.15715    7.3062805     135739.7   0.89951769 
 1019000    372.85198   -36.807907     137607.4   0.88730885 
 1020000    361.26514   -14.015825    132408.92   0.92214532 
 1021000    385.35915    13.370252    128840.38    0.9476863 
 1022000    359.81255   -14.913714    127225.27   0.95971706 
 1023000    353.15453    33.780166    128664.88   0.94897898 
 1024000     394.0415    10.326634    133060.48   0.91762979 
 1025000    365.88063    8.8304619    135226.72   0.90292998 
 1026000    407.94815   -12.224802    136083.91    0.8972425 
 1027000    349.26329   -78.222626    138172.64     0.883679 
 1028000     378.1632   -33.331865    137466.71   0.88821698 
 1029000    350.78562   -27.625612    136566.69   0.89407061 
 1030000    382.37869   -19.241658    138348.65   0.88255479 
 1031000    355.89668    86.920129    131331.32   0.92971169 
 1032000    398.51688     4.496053    132930.62   0.91852626 
 1033000    380.15101    76.393178    131677.99   0.92726405 
 1034000    395.46551     51.44626    132010.59   0.92492781 
 1035000    355.29663    35.783701    132155.17   0.92391588 
 1036000    397.26726    26.715696    132849.16   0.91908947 
 1037000     371.5156   -8.6857138     132132.1   0.92407722 
 1038000    373.13114   -8.2672117    133802.58   0.91254044 
 1039000     373.5333   -59.247345    137615.57   0.88725615 
 1040000    369.31042   -24.034083    132788.45   0.91950965 
 1041000    396.37957    28.722179    131401.16   0.92921753 
 1042000    377.41323   -42.702724    139081.51   0.87790434 
 1043000    366.74893   -5.0767534    138355.29   0.88251246 
 1044000    350.91502   -36.145679    140244.92   0.87062168 
 1045000    388.34918   -52.861685    139212.56   0.87707794 
 1046000    362.03446   -27.090217     137595.4   0.88738625 
 1047000    346.95207   -11.166249    135528.92   0.90091668 
 1048000    419.35268    95.852184    130048.82   0.93888024 
 1049000    361.58755    23.681726    135479.41    0.9012459 
 1050000    400.05597   -30.549671    140575.31   0.86857547 
 1051000    354.30618   -15.341468    137909.43   0.88536559 
 1052000    358.80058   -23.318948    135113.27   0.90368815 
 1053000    396.69498    61.693343    133997.02   0.91121627 
 1054000    366.67189    95.654393    133487.92   0.91469149 
 1055000    367.52406    42.428377     138822.2    0.8795442 
 1056000    354.34019   -11.653802    141428.14   0.86333781 
 1057000    388.58934    22.257992     138496.3    0.8816139 
 1058000    358.34351   -33.903807    140095.68   0.87154909 
 1059000    370.93377   -2.7948157    141210.59   0.86466791 
 1060000    378.30406    3.3845094    140292.97   0.87032347 
 1061000    367.45309   -31.490183     142366.5   0.85764745 
 1062000    413.40109    42.726023    140993.12   0.86600155 
 1063000    338.61345    14.497206    140456.83    0.8693081 
 1064000    377.42684   -38.489938    142861.15   0.85467785 
 1065000     359.0571    20.301391    139300.95    0.8765214 
 1066000    372.15872   -33.461857    142924.21   0.85430079 
 1067000    397.37275    45.334544    137268.89   0.88949697 
 1068000    365.69793   -7.0851646    139575.35   0.87479821 
 1069000     365.2348   -31.808286    143898.38   0.84851732 
 1070000    423.33998    5.2672728    141173.81   0.86489317 
 1071000    331.70326   -43.617623    142375.37   0.85759403 
 1072000    386.62235    44.519735    139516.61   0.87516653 
 1073000    389.49811    38.944088    139286.65   0.87661136 
 1074000    357.24972   -12.099372    139969.97   0.87233183 
 1075000    382.82238    14.164905    139401.05   0.87589201 
 1076000    375.82368    20.718534    140008.97    0.8720889 
 1077000    344.20246    -20.36901    144058.26   0.84757556 
 1078000     374.9533    4.4737529    139141.19   0.87752778 
 1079000    392.84628    9.4200018    136699.15   0.89320423 
 1080000    370.72617    9.7709688    139448.87   0.87559166 
 1081000     415.6307    3.0885024    138914.01   0.87896295 
 1082000    386.32748   -2.7214816    140101.27   0.87151433 
 1083000    359.39132   -18.539098    138918.11   0.87893699 
 1084000    369.69434    47.186327    136416.45   0.89505526 
 1085000    391.00412    45.118863    137212.31   0.88986376 
 1086000    367.21682    44.284026    132305.23     0.922868 
 1087000    370.69583   -18.139225    134114.86   0.91041562 
 1088000    373.86127   -28.154601    135610.12    0.9003772 
 1089000    392.14431   -18.016427    134711.87    0.9063809 
 1090000    347.34129    34.861129    134582.38   0.90725296 
 1091000    390.25727   -27.093374    139398.51   0.87590797 
 1092000    373.60863   -11.375532    136259.72   0.89608479 
 1093000    413.37519    11.822026    133017.26   0.91792795 
 1094000    368.70693    18.068167    133639.93   0.91365103 
 1095000    363.45366    18.089697    132608.37   0.92075835 
 1096000    352.78678   -12.042143    133884.86   0.91197962 
 1097000    352.94216   -21.551942     134454.4   0.90811656 
 1098000    363.34057    10.500565    131920.03   0.92556275 
 1099000      368.008    23.968787    130578.01   0.93507526 
 1100000    381.48854    18.363436     130893.5   0.93282146 
 1101000    331.81529   -44.855588     133215.1   0.91656473 
 1102000    389.78942    -62.26764    134710.44   0.90639048 
 1103000    360.70034    2.4846605    134782.39   0.90590665 
 1104000    380.82735    14.563355    132447.24   0.92187853 
 1105000    356.21302   -60.423958     134017.2   0.91107906 
 1106000    415.37552   -28.865841     132762.3   0.91969077 
 1107000      339.284   -10.191942    130168.37   0.93801794 
 1108000    364.99194   -47.111875     130364.2   0.93660888 
 1109000    381.95696    62.645411    126073.78   0.96848258 
 1110000    363.58898    12.230506    127942.61   0.95433617 
 1111000    374.87375   -50.891351    131084.14   0.93146478 
 1112000    322.16765   -61.704265    129538.75   0.94257711 
 1113000    361.60917    66.761083     124265.6   0.98257492 
 1114000    393.10638   -30.755801    129766.93   0.94091972 
 1115000    348.95491   -9.8915307    129827.62    0.9404799 
 1116000    401.96805   -71.995268    134332.26   0.90894224 
 1117000     341.6693    8.1988296    129502.85   0.94283845 
 1118000    395.64537    1.2025997    132092.21   0.92435629 
 1119000    355.10181    1.5397408    132206.05   0.92356035 
 1120000    389.02278      38.5672    133370.66   0.91549567 
 1121000    394.46166    55.603827    132132.91   0.92407154 
 1122000    352.61611    30.629115    134243.31   0.90954447 
 1123000    379.43648     25.33118    133509.31   0.91454492 
 1124000    357.99431   -3.9467313    136605.31   0.89381783 
 1125000    385.10768    72.805745    132646.06   0.92049672 
 1126000    360.84864   -16.399064    133817.11   0.91244135 
 1127000    356.26619   -40.355516       133603   0.91390361 
 1128000    384.37621    38.089514    129286.08   0.94441929 
 1129000    391.19218    60.528171    129789.57   0.94075557 
 1130000    360.16512   -68.601373    135297.83   0.90245543 
 1131000    378.22036    -21.66515    136287.36   0.89590309 
 1132000    368.32212    11.583325    136848.43   0.89222989 
 1133000    367.50728   -7.1599859    138346.55    0.8825682 
 1134000     375.7785    17.133067    141176.69   0.86487554 
 1135000    349.72967     -45.0997    145759.47   0.83768322 
 1136000    393.79859   -18.420236    144339.54   0.84592391 
 1137000    359.58533   -15.392064    143636.55   0.85006403 
 1138000    365.82892    7.0393416     141698.4    0.8616912 
 1139000    393.51424    36.131698    138683.92   0.88042123 
 1140000    371.20559   -31.382388    142765.19   0.85525232 
 1141000    386.99313    -17.53098     141566.8   0.86249223 
 1142000    356.93836    10.040045    138423.75   0.88207595 
 1143000    406.82709    10.746351     139584.7   0.87473961 
 1144000    390.36246    6.1134784    138989.56   0.87848517 
 1145000    356.07122   -30.452269    141626.99   0.86212567 
 1146000    373.09607    9.1611749    139966.16   0.87235558 
 1147000    354.06641    0.5877198    140503.48   0.86901947 
 1148000    406.89349    39.249866    141415.56   0.86341466 
 1149000    419.98451    28.458475    140084.49   0.87161869 
 1150000    368.08171   -1.9878711    142872.65   0.85460909 
 1151000    389.54166   -67.144647    146714.95    0.8322278 
 1152000    343.14723   -23.688356    147924.52   0.82542274 
 1153000    388.88699    22.938631    142417.32   0.85734142 
 1154000    359.49266   -40.339154    141121.88   0.86521143 
 1155000    396.15875   -26.491507    141506.01   0.86286275 
 1156000    369.69748    19.971406     139589.6   0.87470887 
 1157000    392.31363    69.617203    137559.21   0.88761968 
 1158000    374.10085    35.371625    139690.21   0.87407892 
 1159000     368.2243    6.6350321    140121.32   0.87138964 
 1160000    400.04567    37.768639    138436.45   0.88199505 
 1161000    375.85919   -5.2155437    140156.92   0.87116831 
 1162000    359.03903   -26.672542     138153.4   0.88380211 
 1163000    382.24767   -40.222594    136384.57   0.89526449 
 1164000    372.36654    21.967287    134191.96   0.90989257 
 1165000    410.18083   -48.194231    136332.64    0.8956055 
 1166000    335.10065    28.758995    133380.92   0.91542527 
 1167000    419.49996     28.57404    138227.74   0.88332677 
 1168000    335.19922    1.7893163    138416.35   0.88212314 
 1169000    382.56917     36.67035    138709.81   0.88025686 
 1170000    333.03246     33.63933     137211.6   0.88986838 
 1171000    394.32282   -24.904354    138426.92   0.88205579 
 1172000    360.40887    24.457809    133798.09   0.91257108 
 1173000    389.33967    41.904713    131772.54   0.92659868 
 1174000    385.81103    44.857426    133013.47   0.91795415 
 1175000    336.35614    36.764882     133722.7   0.91308557 
 1176000     348.0533    8.0064716    136460.15   0.89476863 
 1177000    344.17492   -6.6090457    135369.59   0.90197707 
 1178000    369.12919    58.833618    132372.23   0.92240093 
 1179000    387.88175   -56.593867    138698.11   0.88033113 
 1180000    367.23697    16.471076    134397.04   0.90850411 
 1181000    382.50755   -28.141903    139638.27   0.87440402 
 1182000    391.73023    -16.33256    140828.95   0.86701113 
 1183000    350.08422   -14.426506    141895.96   0.86049148 
 1184000    344.34466    -18.59305    142255.37   0.85831744 
 1185000    405.40637    26.200346    139784.81   0.87348737 
 1186000     364.7599    49.307234       134146    0.9102043 
 1187000    388.49781   -44.365678    137524.64   0.88784285 
 1188000    356.04902   -3.7394651    132133.22   0.92406942 
 1189000    380.47911     30.50114     132218.3   0.92347478 
 1190000    371.19042    34.405247    131981.83   0.92512935 
 1191000    340.58451    -5.115731    135444.58   0.90147766 
 1192000     369.6286   -55.302394    140045.77   0.87185968 
 1193000    356.46565    17.672897    138436.67   0.88199368 
 1194000    385.13549    1.8598314    134606.37   0.90709124 
 1195000    361.68746    2.1033239    133997.86   0.91121053 
 1196000    338.50946   -38.794334    139226.63   0.87698932 
 1197000     403.1631    39.621564    136432.53   0.89494976 
 1198000    382.62166   0.60667007    139192.58   0.87720383 
 1199000    372.57832   -2.4393921    139363.23   0.87612967 
 1200000    388.91257    16.589643    134954.08   0.90475418 
 1201000    389.28566  -0.73435732    135502.52   0.90109223 
 1202000    362.26015    54.409989    130761.23   0.93376502 
 1203000    394.33564    -82.89008     140727.2   0.86763801 
 1204000    349.28547    25.186184    133759.44   0.91283472 
 1205000     392.8209     45.85281    130093.83   0.93855541 
 1206000    388.25891   -11.875584    134577.93   0.90728295 
 1207000     358.1735    44.258868    133218.25    0.9165431 
 1208000    375.57479    36.809543    134484.84     0.907911 
 1209000    394.68556   -28.828938    139436.72   0.87566794 
 1210000    363.19856     3.045375     136049.6   0.89746872 
 1211000    346.50904    59.093625    132855.84   0.91904324 
 1212000    387.67907   -17.124509     137146.7   0.89028951 
 1213000    346.95689    53.026176    131815.36   0.92629766 
 1214000    354.02665    53.883599     133228.5   0.91647255 
 1215000    383.29878    74.242364    134578.82   0.90727695 
 1216000    347.16926   -38.877803    140178.53   0.87103397 
 1217000    387.58014    8.4455848    139211.14    0.8770869 
 1218000    376.51352   -10.372717    137394.58   0.88868324 
 1219000    350.65838   -2.9928333    133871.71    0.9120692 
 1220000    407.35593    39.665635    128601.29   0.94944823 
 1221000    379.83389    76.286144    127178.15   0.96007263 
 1222000    360.47186   -22.627035    130129.62   0.93829728 
 1223000     387.7696    57.443574    127090.82   0.96073237 
 1224000    358.12084    50.147312    127321.58   0.95899112 
 1225000    383.23356   -11.306967    130877.08   0.93293847 
 1226000    310.14428    2.3909443    131131.91   0.93112551 
 1227000    370.48262    19.549968    132283.63    0.9230187 
 1228000    408.80231   -37.099196    135239.55   0.90284435 
 1229000    332.27718   -2.3244908    133487.66   0.91469329 
 1230000    380.59561    -27.41925     133874.8   0.91204816 
 1231000    391.68965    34.643606    131006.52   0.93201666 
 1232000    363.77203   -32.104008    134384.46   0.90858916 
 1233000    376.63591   -27.653677    135560.24    0.9007085 
 1234000    363.24432       -57.56    136902.07   0.89188034 
 1235000    391.24926     71.50408    129245.88   0.94471299 
 1236000    361.13919      90.9702    128470.29   0.95041633 
 1237000    384.85767   -16.754612    132894.75   0.91877418 
 1238000    388.35772   -21.661026    133242.85   0.91637387 
 1239000    392.18683    70.300844    131501.09   0.92851144 
 1240000    353.01146   -34.841546    135647.37   0.90012999 
 1241000     389.9752    58.189165    131052.46   0.93168998 
 1242000    343.18225    75.681339    130317.36   0.93694547 
 1243000    346.82793    8.5015928    133359.16   0.91557461 
 1244000    357.62916   -46.554176    137283.63   0.88940151 
 1245000    396.59467   -12.964435     139754.3   0.87367803 
[...]
 5968000    353.36529   -11.369279    137922.63   0.88528087 
 5969000    368.16115   -40.792589    137922.63   0.88528087 
 5970000    352.31686   -19.082843    137922.63   0.88528087 
 5971000    365.22717   -45.605078    137922.63   0.88528087 
 5972000    366.79427   -50.423039    137922.63   0.88528087 
 5973000    344.24955   -13.536006    137922.63   0.88528087 
 5974000    368.93275   -38.728244    137922.63   0.88528087 
 5975000    338.38986    23.990906    137922.63   0.88528087 
 5976000    372.88969   -14.217576    137922.63   0.88528087 
 5977000    366.67591    1.7940939    137922.63   0.88528087 
 5978000    371.22333     5.744645    137922.63   0.88528087 
 5979000    364.04519    18.353377    137922.63   0.88528087 
 5980000    382.00408   -15.803651    137922.63   0.88528087 
 5981000    374.81601   -8.2499679    137922.63   0.88528087 
 5982000     356.4487    18.494965    137922.63   0.88528087 
 5983000    382.47759   -35.323901    137922.63   0.88528087 
 5984000    369.39137   -11.437513    137922.63   0.88528087 
 5985000    339.00161    46.144563    137922.63   0.88528087 
 5986000     351.9457    25.035033    137922.63   0.88528087 
 5987000    351.14847    18.894083    137922.63   0.88528087 
 5988000    369.35286   -29.120557    137922.63   0.88528087 
 5989000     348.6164  -0.68578993    137922.63   0.88528087 
 5990000    358.72506   -19.691965    137922.63   0.88528087 
 5991000    349.00839   -13.712601    137922.63   0.88528087 
 5992000     359.7419   -40.827996    137922.63   0.88528087 
 5993000    357.30458   -50.057889    137922.63   0.88528087 
 5994000     372.9071   -67.264529    137922.63   0.88528087 
 5995000     339.4426    1.9196295    137922.63   0.88528087 
 5996000    344.83902    4.2632305    137922.63   0.88528087 
 5997000    362.76351   -28.125498    137922.63   0.88528087 
 5998000    358.84421   -39.057475    137922.63   0.88528087 
 5999000    358.23371   -55.316437    137922.63   0.88528087 
 6000000    368.35772   -70.650871    137922.63   0.88528087 
Loop time of 62.4166 on 1 procs for 2000000 steps with 216 atoms

Performance: 1384.247 ns/day, 0.017 hours/ns, 32042.757 timesteps/s
100.0% CPU use with 1 MPI tasks x no OpenMP threads

MPI task timing breakdown:
Section |  min time  |  avg time  |  max time  |%varavg| %total
---------------------------------------------------------------
Pair    | 49.018     | 49.018     | 49.018     |   0.0 | 78.53
Neigh   | 3.5455     | 3.5455     | 3.5455     |   0.0 |  5.68
Comm    | 4.6039     | 4.6039     | 4.6039     |   0.0 |  7.38
Output  | 0.027403   | 0.027403   | 0.027403   |   0.0 |  0.04
Modify  | 3.2112     | 3.2112     | 3.2112     |   0.0 |  5.14
Other   |            | 2.01       |            |       |  3.22

Nlocal:    216 ave 216 max 216 min
Histogram: 1 0 0 0 0 0 0 0 0 0
Nghost:    660 ave 660 max 660 min
Histogram: 1 0 0 0 0 0 0 0 0 0
Neighs:    2340 ave 2340 max 2340 min
Histogram: 1 0 0 0 0 0 0 0 0 0

Total # of neighbors = 2340
Ave neighs/atom = 10.8333
Neighbor list builds = 23376
Dangerous builds = 0

#dump pos all xyz 10 lj.xyz

thermo		250

dump		2 all custom 20 lj_trajectory_match_heavy_nve.out id mass x y z xu yu zu fx fy fz
dump_modify	2 sort id
dump_modify	2 format line "%d %.2f %.12f %.12f %.12f %.6f %.6f %.6f %.3f %.3f %.3f"

run		60000
Per MPI rank memory allocation (min/avg/max) = 4.368 | 4.368 | 4.368 Mbytes
Step Temp Press Volume Density 
 6000000    368.35772   -70.650871    137922.63   0.88528087 
 6000250    363.60426   -59.722848    137922.63   0.88528087 
 6000500    357.32503   -46.125469    137922.63   0.88528087 
 6000750    351.03403   -32.466227    137922.63   0.88528087 
 6001000    347.13478   -21.996681    137922.63   0.88528087 
 6001250    348.93283   -19.723886    137922.63   0.88528087 
 6001500    355.83348   -24.898777    137922.63   0.88528087 
 6001750    358.99735   -26.783308    137922.63   0.88528087 
 6002000    356.46938   -21.514855    137922.63   0.88528087 
 6002250    352.68244   -15.956186    137922.63   0.88528087 
 6002500    350.29028   -14.165609    137922.63   0.88528087 
 6002750     353.9665   -19.881168    137922.63   0.88528087 
 6003000    360.79093   -31.247016    137922.63   0.88528087 
 6003250    365.32255   -40.067498    137922.63   0.88528087 
 6003500    364.87455   -39.630157    137922.63   0.88528087 
 6003750    359.36623   -32.160829    137922.63   0.88528087 
 6004000    356.54645   -27.410124    137922.63   0.88528087 
 6004250    360.29911   -31.636583    137922.63   0.88528087 
 6004500    362.59499   -31.514685    137922.63   0.88528087 
 6004750    360.34132   -26.338166    137922.63   0.88528087 
 6005000    356.40575   -18.277054    137922.63   0.88528087 
 6005250    350.74629   -8.5691769    137922.63   0.88528087 
 6005500    348.46783   -3.4754382    137922.63   0.88528087 
 6005750    352.37888   -7.1691956    137922.63   0.88528087 
 6006000    354.00627   -6.8499281    137922.63   0.88528087 
 6006250    349.85338    1.2687509    137922.63   0.88528087 
 6006500    346.93767    6.2958573    137922.63   0.88528087 
 6006750    347.32117     6.159902    137922.63   0.88528087 
 6007000    349.53041   0.96478252    137922.63   0.88528087 
 6007250    356.23912   -11.722192    137922.63   0.88528087 
 6007500    367.35723   -29.347814    137922.63   0.88528087 
 6007750    373.60114   -40.005934    137922.63   0.88528087 
 6008000    370.18567   -36.232631    137922.63   0.88528087 
 6008250    367.96338   -30.425056    137922.63   0.88528087 
 6008500     370.0447   -28.948633    137922.63   0.88528087 
 6008750    373.50318   -28.531501    137922.63   0.88528087 
 6009000    373.68367    -24.96391    137922.63   0.88528087 
 6009250    371.99075   -18.841886    137922.63   0.88528087 
 6009500    373.06949   -14.804503    137922.63   0.88528087 
 6009750     370.5312   -6.1748238    137922.63   0.88528087 
 6010000    367.62784      3.64508    137922.63   0.88528087 
 6010250    365.17659    12.815166    137922.63   0.88528087 
 6010500    363.59128    21.090978    137922.63   0.88528087 
 6010750    360.87158    27.953505    137922.63   0.88528087 
 6011000     358.8759    33.538682    137922.63   0.88528087 
 6011250    362.24777    30.151363    137922.63   0.88528087 
 6011500    366.20994     24.12591    137922.63   0.88528087 
 6011750    370.41799    19.633203    137922.63   0.88528087 
 6012000    371.78711    18.254802    137922.63   0.88528087 
 6012250    366.75573    26.481922    137922.63   0.88528087 
 6012500    357.96554     38.22296    137922.63   0.88528087 
 6012750    355.13291    40.773778    137922.63   0.88528087 
 6013000    362.07405    29.173479    137922.63   0.88528087 
 6013250    366.02545    19.224561    137922.63   0.88528087 
 6013500    368.05491      9.63722    137922.63   0.88528087 
 6013750     376.4176   -8.6354936    137922.63   0.88528087 
 6014000    385.98138   -28.619468    137922.63   0.88528087 
 6014250     389.4625   -37.379593    137922.63   0.88528087 
 6014500    383.90671   -32.823706    137922.63   0.88528087 
 6014750    377.05226   -25.336501    137922.63   0.88528087 
 6015000    380.00178   -30.553825    137922.63   0.88528087 
 6015250    385.15824   -37.335911    137922.63   0.88528087 
 6015500    379.91754   -29.728322    137922.63   0.88528087 
 6015750     363.2573   -5.9069744    137922.63   0.88528087 
 6016000    347.49785    16.992435    137922.63   0.88528087 
 6016250     339.0269    28.906902    137922.63   0.88528087 
 6016500    341.16677    25.010915    137922.63   0.88528087 
 6016750    354.66417    4.5266887    137922.63   0.88528087 
 6017000    366.06169   -13.849704    137922.63   0.88528087 
 6017250    369.74322   -20.496976    137922.63   0.88528087 
 6017500    370.93244   -22.554192    137922.63   0.88528087 
 6017750    373.79471    -24.17437    137922.63   0.88528087 
 6018000    370.71684   -18.118339    137922.63   0.88528087 
 6018250    362.01152    -4.747291    137922.63   0.88528087 
 6018500    352.42494    9.1886488    137922.63   0.88528087 
 6018750    351.08885    10.999504    137922.63   0.88528087 
 6019000     356.6873    3.9741507    137922.63   0.88528087 
 6019250    354.95678    5.7614171    137922.63   0.88528087 
 6019500    356.54891    2.6148672    137922.63   0.88528087 
 6019750     366.5865   -13.805009    137922.63   0.88528087 
 6020000    374.33003    -27.90618    137922.63   0.88528087 
 6020250    376.50954   -35.788593    137922.63   0.88528087 
 6020500    374.83751   -36.269707    137922.63   0.88528087 
 6020750    370.93063   -34.993109    137922.63   0.88528087 
 6021000    368.91995   -37.131605    137922.63   0.88528087 
 6021250    370.03361   -43.835629    137922.63   0.88528087 
 6021500    371.85416   -51.524667    137922.63   0.88528087 
 6021750    369.76151   -52.745851    137922.63   0.88528087 
 6022000    358.65553   -41.370742    137922.63   0.88528087 
 6022250    349.48526   -32.421309    137922.63   0.88528087 
 6022500    354.85436   -43.143223    137922.63   0.88528087 
 6022750    363.88589   -59.095881    137922.63   0.88528087 
 6023000    372.49249   -73.687613    137922.63   0.88528087 
 6023250    378.30741   -84.190076    137922.63   0.88528087 
 6023500    377.38865   -83.951503    137922.63   0.88528087 
 6023750    370.90446   -75.300775    137922.63   0.88528087 
 6024000    367.01118   -68.604232    137922.63   0.88528087 
 6024250    366.42715     -65.6068    137922.63   0.88528087 
 6024500    358.51532   -52.233287    137922.63   0.88528087 
 6024750    345.90795    -33.28689    137922.63   0.88528087 
 6025000    343.39628   -29.417684    137922.63   0.88528087 
 6025250    345.33949   -32.419294    137922.63   0.88528087 
 6025500     350.7442   -42.834286    137922.63   0.88528087 
 6025750    364.31542   -64.770887    137922.63   0.88528087 
 6026000    377.40645   -85.357762    137922.63   0.88528087 
 6026250    378.94343   -87.338341    137922.63   0.88528087 
 6026500    367.00806   -67.098084    137922.63   0.88528087 
 6026750    354.81675   -45.428493    137922.63   0.88528087 
 6027000    350.29336   -32.679293    137922.63   0.88528087 
 6027250    348.66805   -23.546945    137922.63   0.88528087 
 6027500    355.95984   -26.668786    137922.63   0.88528087 
 6027750    364.41907   -32.490184    137922.63   0.88528087 
 6028000    367.47919   -30.772355    137922.63   0.88528087 
 6028250     364.1688   -21.431507    137922.63   0.88528087 
 6028500     354.7671   -4.3121213    137922.63   0.88528087 
 6028750     348.5848    6.8112742    137922.63   0.88528087 
 6029000    351.96314    4.2168559    137922.63   0.88528087 
 6029250    359.99435   -5.3745019    137922.63   0.88528087 
 6029500    364.39861   -10.639328    137922.63   0.88528087 
 6029750    362.01292    -7.158502    137922.63   0.88528087 
 6030000    359.83179   -3.8531465    137922.63   0.88528087 
 6030250    361.30856   -5.8243996    137922.63   0.88528087 
 6030500    363.87164   -9.8595173    137922.63   0.88528087 
 6030750    362.55556   -10.068472    137922.63   0.88528087 
 6031000     361.5145    -9.860613    137922.63   0.88528087 
 6031250    367.76096    -19.75229    137922.63   0.88528087 
 6031500    370.03372   -24.048582    137922.63   0.88528087 
 6031750    368.68886   -23.051242    137922.63   0.88528087 
 6032000    370.89307   -26.404157    137922.63   0.88528087 
 6032250    367.98109   -23.621793    137922.63   0.88528087 
 6032500    368.93211   -25.381616    137922.63   0.88528087 
 6032750    375.19511   -34.686105    137922.63   0.88528087 
 6033000    382.36002   -44.238557    137922.63   0.88528087 
 6033250    387.32194   -47.954357    137922.63   0.88528087 
 6033500    382.41229   -37.290223    137922.63   0.88528087 
 6033750     369.4783   -13.451091    137922.63   0.88528087 
 6034000    361.57192    2.9345064    137922.63   0.88528087 
 6034250    360.90642    8.0683988    137922.63   0.88528087 
 6034500    365.11378     3.496783    137922.63   0.88528087 
 6034750    371.94819   -7.0378894    137922.63   0.88528087 
 6035000     378.4559   -18.316082    137922.63   0.88528087 
 6035250    383.31562   -25.568912    137922.63   0.88528087 
 6035500    375.30343    -13.85542    137922.63   0.88528087 
 6035750    361.44436    6.7228459    137922.63   0.88528087 
 6036000    360.78917     10.90478    137922.63   0.88528087 
 6036250    366.99069    4.2363769    137922.63   0.88528087 
 6036500    369.81658    1.5577496    137922.63   0.88528087 
 6036750    373.94699   -1.4634135    137922.63   0.88528087 
 6037000    378.64829   -4.3757885    137922.63   0.88528087 
 6037250    371.97867     5.160697    137922.63   0.88528087 
 6037500    368.96857    9.1795114    137922.63   0.88528087 
 6037750     380.1079   -7.2091726    137922.63   0.88528087 
 6038000    387.41514    -20.65341    137922.63   0.88528087 
 6038250    384.01318   -18.472867    137922.63   0.88528087 
 6038500    375.08938    -8.722681    137922.63   0.88528087 
 6038750    368.07768  -0.34059774    137922.63   0.88528087 
 6039000    366.24171  -0.88280571    137922.63   0.88528087 
 6039250    370.63721   -7.8044162    137922.63   0.88528087 
 6039500    377.04404   -17.227462    137922.63   0.88528087 
 6039750    378.85108    -20.37905    137922.63   0.88528087 
 6040000    376.69992   -17.168298    137922.63   0.88528087 
 6040250    372.64849   -10.840577    137922.63   0.88528087 
 6040500     368.0813   -3.4148371    137922.63   0.88528087 
 6040750    364.63088    1.3555141    137922.63   0.88528087 
 6041000    363.52745     2.658429    137922.63   0.88528087 
 6041250    366.08252   -2.7805154    137922.63   0.88528087 
 6041500    373.16413   -15.840761    137922.63   0.88528087 
 6041750    383.36797   -32.716758    137922.63   0.88528087 
 6042000    389.84361   -43.889977    137922.63   0.88528087 
 6042250    387.44148   -41.461386    137922.63   0.88528087 
 6042500    380.33953    -31.93326    137922.63   0.88528087 
 6042750    374.68274   -21.687008    137922.63   0.88528087 
 6043000    376.23597   -19.611988    137922.63   0.88528087 
 6043250    374.64829   -11.617426    137922.63   0.88528087 
 6043500    367.55443     4.712428    137922.63   0.88528087 
 6043750    371.94678    6.0609712    137922.63   0.88528087 
 6044000    379.98984    2.2177827    137922.63   0.88528087 
 6044250    379.20305    7.3181314    137922.63   0.88528087 
 6044500    371.74848    20.452204    137922.63   0.88528087 
 6044750     369.2576    25.949547    137922.63   0.88528087 
 6045000    365.94054    29.927203    137922.63   0.88528087 
 6045250    362.31202    32.895617    137922.63   0.88528087 
 6045500    362.53257    28.743355    137922.63   0.88528087 
 6045750     365.4205     20.90943    137922.63   0.88528087 
 6046000    374.12638    4.2123261    137922.63   0.88528087 
 6046250     378.5304   -5.9340141    137922.63   0.88528087 
 6046500    377.52219   -7.2356781    137922.63   0.88528087 
 6046750     372.7957  -0.87394422    137922.63   0.88528087 
 6047000    362.95686    12.539952    137922.63   0.88528087 
 6047250    356.14463    22.124139    137922.63   0.88528087 
 6047500    360.77732    16.563479    137922.63   0.88528087 
 6047750       365.48    10.055749    137922.63   0.88528087 
 6048000    367.64377    7.5901305    137922.63   0.88528087 
 6048250    368.48597    7.4948152    137922.63   0.88528087 
 6048500    370.62231    5.6986635    137922.63   0.88528087 
 6048750    371.59431    5.8831132    137922.63   0.88528087 
 6049000    366.69553    13.000612    137922.63   0.88528087 
 6049250     358.0655    24.659076    137922.63   0.88528087 
 6049500     355.7878    26.368167    137922.63   0.88528087 
 6049750    364.46484    10.375489    137922.63   0.88528087 
 6050000    376.07369   -10.125098    137922.63   0.88528087 
 6050250    385.07341   -29.199247    137922.63   0.88528087 
 6050500    384.31679   -32.419436    137922.63   0.88528087 
 6050750    372.53035   -20.468724    137922.63   0.88528087 
 6051000    365.08619   -11.790746    137922.63   0.88528087 
 6051250    367.81616   -17.111057    137922.63   0.88528087 
 6051500    371.42115   -21.558174    137922.63   0.88528087 
 6051750    361.65761   -9.1793222    137922.63   0.88528087 
 6052000    348.07626    9.0795594    137922.63   0.88528087 
 6052250    339.54282    19.836401    137922.63   0.88528087 
 6052500    339.33067    17.605072    137922.63   0.88528087 
 6052750    352.53876   -3.7926227    137922.63   0.88528087 
 6053000    366.10465   -26.338627    137922.63   0.88528087 
 6053250    369.50655   -35.476905    137922.63   0.88528087 
 6053500    366.89344   -33.559836    137922.63   0.88528087 
 6053750     361.3398   -25.835691    137922.63   0.88528087 
 6054000    352.10127   -13.376777    137922.63   0.88528087 
 6054250    342.59304   0.85914194    137922.63   0.88528087 
 6054500    338.80348    6.3446332    137922.63   0.88528087 
 6054750    344.86852   -2.2592249    137922.63   0.88528087 
 6055000    353.89675   -15.485685    137922.63   0.88528087 
 6055250     354.8584   -18.720332    137922.63   0.88528087 
 6055500    351.10385   -14.323077    137922.63   0.88528087 
 6055750     347.4931   -10.131093    137922.63   0.88528087 
 6056000    348.28041   -12.190866    137922.63   0.88528087 
 6056250    354.55339   -21.967313    137922.63   0.88528087 
 6056500    360.37956   -29.906193    137922.63   0.88528087 
 6056750    362.02924   -31.339267    137922.63   0.88528087 
 6057000    362.43428   -30.722458    137922.63   0.88528087 
 6057250    365.40104   -34.173542    137922.63   0.88528087 
 6057500    370.87911   -39.692032    137922.63   0.88528087 
 6057750    373.20407   -41.036779    137922.63   0.88528087 
 6058000    373.09758   -38.461861    137922.63   0.88528087 
 6058250    366.38933   -26.539092    137922.63   0.88528087 
 6058500    358.95685   -13.809973    137922.63   0.88528087 
 6058750    361.95511   -17.398068    137922.63   0.88528087 
 6059000     364.5891   -21.333832    137922.63   0.88528087 
 6059250    360.53416   -17.934235    137922.63   0.88528087 
 6059500    357.68804   -16.636393    137922.63   0.88528087 
 6059750    356.92443   -17.369083    137922.63   0.88528087 
 6060000    359.97648   -22.774955    137922.63   0.88528087 
Loop time of 5.33986 on 1 procs for 60000 steps with 216 atoms

Performance: 485.406 ns/day, 0.049 hours/ns, 11236.254 timesteps/s
97.4% CPU use with 1 MPI tasks x no OpenMP threads

MPI task timing breakdown:
Section |  min time  |  avg time  |  max time  |%varavg| %total
---------------------------------------------------------------
Pair    | 1.4934     | 1.4934     | 1.4934     |   0.0 | 27.97
Neigh   | 0.11028    | 0.11028    | 0.11028    |   0.0 |  2.07
Comm    | 0.14201    | 0.14201    | 0.14201    |   0.0 |  2.66
Output  | 3.435      | 3.435      | 3.435      |   0.0 | 64.33
Modify  | 0.097461   | 0.097461   | 0.097461   |   0.0 |  1.83
Other   |            | 0.06175    |            |       |  1.16

Nlocal:    216 ave 216 max 216 min
Histogram: 1 0 0 0 0 0 0 0 0 0
Nghost:    651 ave 651 max 651 min
Histogram: 1 0 0 0 0 0 0 0 0 0
Neighs:    2343 ave 2343 max 2343 min
Histogram: 1 0 0 0 0 0 0 0 0 0

Total # of neighbors = 2343
Ave neighs/atom = 10.8472
Neighbor list builds = 724
Dangerous builds = 0

####################################
# 6) Advanced inputs
####################################

#dump		2 all custom 1000 positions.lammpstrj id x y z vx vy vz
#dump_modify	2 sort id

#compute		RDF all rdf 150 cutoff 3.5
#fix		RDF_OUTPUT all ave/time 25 100 5000 c_RDF[*] file rdf_lj.out mode vector

#compute		MSD all msd
#fix		MSD_OUTPUT all ave/correlate 1 5000 5000 c_MSD[*] file msd_lj.out ave running

#compute		VACF all vacf
#fix		VACF_OUTPUT all ave/correlate 1 2500 5000 c_VACF[*] file vacf_lj.out ave running

#run		5000

#write_restart	restart2.lj.equil
Total wall time: 0:04:28
